
    -----------------------------------------------------------------------
          Psi4: An Open-Source Ab Initio Electronic Structure Package
                               Psi4 1.2.1 release

                         Git: Rev {HEAD} 406f4de 


    R. M. Parrish, L. A. Burns, D. G. A. Smith, A. C. Simmonett,
    A. E. DePrince III, E. G. Hohenstein, U. Bozkaya, A. Yu. Sokolov,
    R. Di Remigio, R. M. Richard, J. F. Gonthier, A. M. James,
    H. R. McAlexander, A. Kumar, M. Saitow, X. Wang, B. P. Pritchard,
    P. Verma, H. F. Schaefer III, K. Patkowski, R. A. King, E. F. Valeev,
    F. A. Evangelista, J. M. Turney, T. D. Crawford, and C. D. Sherrill,
    J. Chem. Theory Comput. 13(7) pp 3185--3197 (2017).
    (doi: 10.1021/acs.jctc.7b00174)


                         Additional Contributions by
    P. Kraus, H. Kruse, M. H. Lechner, M. C. Schieber, and R. A. Shaw

    -----------------------------------------------------------------------


    Psi4 started on: Wednesday, 31 October 2018 09:55AM

    Process ID: 12566
    Host:       d-snes-l-dc-01
    PSIDATADIR: /home/b6056633/anaconda3/share/psi4
    Memory:     500.0 MiB
    Threads:    2
    
  ==> Input File <==

--------------------------------------------------------------------------
memory 2 GB

molecule methane {
0 1 
 C    -0.000830   0.001644  -0.000431 
 H    -0.675983   0.853982  -0.085819 
 H    -0.394563  -0.833668  -0.580781 
 H     0.083930  -0.291376   1.046762 
 H     0.983044   0.277657  -0.381694 
}

set basis 6-311++G(d,p)
energy, wfn = frequency('wb97x-d', return_wfn=True)
set hessian_write on
wfn.hessian().print_out()

--------------------------------------------------------------------------

  Memory set to   1.863 GiB by Python driver.
gradient() will perform analytic gradient computation.

*** tstart() called on d-snes-l-dc-01
*** at Wed Oct 31 09:55:06 2018

   => Loading Basis Set <=

    Name: 6-311++G(D,P)
    Role: ORBITAL
    Keyword: BASIS
    atoms 1   entry C          line   119 file /home/b6056633/anaconda3/share/psi4/basis/6-311ppg_d_p_.gbs 
    atoms 2-5 entry H          line    42 file /home/b6056633/anaconda3/share/psi4/basis/6-311ppg_d_p_.gbs 


         ---------------------------------------------------------
                                   SCF
            by Justin Turney, Rob Parrish, Andy Simmonett
                             and Daniel Smith
                              RKS Reference
                        2 Threads,   1907 MiB Core
         ---------------------------------------------------------

  ==> Geometry <==

    Molecular point group: c1
    Full point group: C1

    Geometry (in Angstrom), charge = 0, multiplicity = 1:

       Center              X                  Y                   Z               Mass       
    ------------   -----------------  -----------------  -----------------  -----------------
         C            0.000015842253    -0.000001194456    -0.000012070288    12.000000000000
         H           -0.675137157747     0.852336805544    -0.085400070288     1.007825032070
         H           -0.393717157747    -0.835313194456    -0.580362070288     1.007825032070
         H            0.084775842253    -0.293021194456     1.047180929712     1.007825032070
         H            0.983889842253     0.276011805544    -0.381275070288     1.007825032070

  Running in c1 symmetry.

  Rotational constants: A =      5.27333  B =      5.27276  C =      5.27235 [cm^-1]
  Rotational constants: A = 158090.45134  B = 158073.46927  C = 158061.02675 [MHz]
  Nuclear repulsion =   13.426927941629069

  Charge       = 0
  Multiplicity = 1
  Electrons    = 10
  Nalpha       = 5
  Nbeta        = 5

  ==> Algorithm <==

  SCF Algorithm Type is DF.
  DIIS enabled.
  MOM disabled.
  Fractional occupation disabled.
  Guess Type is SAD.
  Energy threshold   = 1.00e-08
  Density threshold  = 1.00e-08
  Integral threshold = 0.00e+00

  ==> Primary Basis <==

  Basis Set: 6-311++G(D,P)
    Blend: 6-311++G(D,P)
    Number of shells: 30
    Number of basis function: 50
    Number of Cartesian functions: 51
    Spherical Harmonics?: true
    Max angular momentum: 2

  ==> DFT Potential <==

   => Composite Functional: WB97X-D <= 

    wB97X-D Hyb-GGA Exchange-Correlation Functional

    J.-D. Chai and M. Head-Gordon, Phys. Chem. Chem. Phys. 10, 6615 (2008)

    Deriv               =              1
    GGA                 =           TRUE
    Meta                =          FALSE

    Exchange Hybrid     =           TRUE
    MP2 Hybrid          =          FALSE

   => Exchange-Correlation Functionals <=

    1.0000   wB97D range-separated functional

   => Exact (HF) Exchange <=

    0.7780            HF,LR [omega = 0.2000]
    0.2220               HF 

   => Molecular Quadrature <=

    Radial Scheme       =       TREUTLER
    Pruning Scheme      =           FLAT
    Nuclear Scheme      =       TREUTLER

    BS radius alpha     =              1
    Pruning alpha       =              1
    Radial Points       =             75
    Spherical Points    =            302
    Total Points        =         113250
    Total Blocks        =            920
    Max Points          =            256
    Max Functions       =             50

   => -CHG: Empirical Dispersion <=

    Chai and Head-Gordon Dispersion Correction
    Chai, J.-D.; Head-Gordon, M. (2010), J. Chem. Phys., 132: 6615-6620

        S6 =   1.000000E+00

   => Loading Basis Set <=

    Name: (6-311++G(D,P) AUX)
    Role: JKFIT
    Keyword: DF_BASIS_SCF
    atoms 1   entry C          line   162 file /home/b6056633/anaconda3/share/psi4/basis/aug-cc-pvtz-jkfit.gbs 
    atoms 2-5 entry H          line    70 file /home/b6056633/anaconda3/share/psi4/basis/aug-cc-pvtz-jkfit.gbs 

  ==> Pre-Iterations <==

   -------------------------------------------------------
    Irrep   Nso     Nmo     Nalpha   Nbeta   Ndocc  Nsocc
   -------------------------------------------------------
     A         50      50       0       0       0       0
   -------------------------------------------------------
    Total      50      50       5       5       5       0
   -------------------------------------------------------

  ==> Integral Setup <==

  ==> DiskDFJK: Density-Fitted J/K Matrices <==

    J tasked:                  Yes
    K tasked:                  Yes
    wK tasked:                 Yes
    Omega:               2.000E-01
    OpenMP threads:              2
    Integrals threads:           2
    Memory (MB):              1430
    Algorithm:                Core
    Integral Cache:           NONE
    Schwarz Cutoff:          1E-12
    Fitting Condition:       1E-12

   => Auxiliary Basis Set <=

  Basis Set: (6-311++G(D,P) AUX)
    Blend: AUG-CC-PVTZ-JKFIT
    Number of shells: 86
    Number of basis function: 288
    Number of Cartesian functions: 351
    Spherical Harmonics?: true
    Max angular momentum: 4

  Minimum eigenvalue in the overlap matrix is 1.3435101351E-03.
  Using Symmetric Orthogonalization.

  SCF Guess: Superposition of Atomic Densities via on-the-fly atomic UHF.

  ==> Iterations <==

                           Total Energy        Delta E     RMS |[F,P]|

   @DF-RKS iter   0:   -40.50670416078364   -4.05067e+01   4.50653e-02 
   @DF-RKS iter   1:   -40.48803457286266    1.86696e-02   6.36821e-03 
   @DF-RKS iter   2:   -40.50347126166197   -1.54367e-02   3.91174e-03 DIIS
   @DF-RKS iter   3:   -40.51547913364809   -1.20079e-02   2.54709e-04 DIIS
   @DF-RKS iter   4:   -40.51555961501662   -8.04814e-05   5.35054e-05 DIIS
   @DF-RKS iter   5:   -40.51556428814436   -4.67313e-06   1.16312e-05 DIIS
   @DF-RKS iter   6:   -40.51556448753857   -1.99394e-07   1.36453e-06 DIIS
   @DF-RKS iter   7:   -40.51556449229662   -4.75805e-09   1.44779e-07 DIIS
   @DF-RKS iter   8:   -40.51556449234184   -4.52189e-11   1.34387e-08 DIIS
   @DF-RKS iter   9:   -40.51556449234224   -4.05009e-13   2.07983e-09 DIIS

  ==> Post-Iterations <==

    Orbital Energies [Eh]
    ---------------------

    Doubly Occupied:                                                      

       1A    -10.262720     2A     -0.791781     3A     -0.476822  
       4A     -0.476793     5A     -0.476750  

    Virtual:                                                              

       6A      0.043292     7A      0.082214     8A      0.082217  
       9A      0.082221    10A      0.150059    11A      0.150065  
      12A      0.150071    13A      0.176949    14A      0.262488  
      15A      0.262493    16A      0.262500    17A      0.343814  
      18A      0.487670    19A      0.487697    20A      0.487717  
      21A      0.743232    22A      0.743236    23A      0.743248  
      24A      0.760853    25A      0.913348    26A      1.047264  
      27A      1.047330    28A      1.543288    29A      1.543309  
      30A      1.543350    31A      1.633978    32A      1.634058  
      33A      1.634076    34A      2.004906    35A      2.004960  
      36A      2.005018    37A      2.401717    38A      2.401810  
      39A      2.440736    40A      2.588530    41A      2.588602  
      42A      2.588672    43A      2.656111    44A      2.656180  
      45A      2.656254    46A      3.044369    47A      3.897375  
      48A      3.897561    49A      3.897751    50A     24.164138  

    Final Occupation by Irrep:
              A 
    DOCC [     5 ]

  Energy converged.

  @DF-RKS Final Energy:   -40.51556449234224

   => Energetics <=

    Nuclear Repulsion Energy =             13.4269279416290690
    One-Electron Energy =                 -79.8404223625368559
    Two-Electron Energy =                  30.4921508567403343
    DFT Exchange-Correlation Energy =      -4.5938220001405403
    Empirical Dispersion Energy =          -0.0003989280342514
    VV10 Nonlocal Energy =                  0.0000000000000000
    Total Energy =                        -40.5155644923422358



Properties will be evaluated at   0.000000,   0.000000,   0.000000 [a0]

Properties computed using the SCF density matrix

  Nuclear Dipole Moment: [e a0]
     X:    -0.0002      Y:     0.0000      Z:     0.0001

  Electronic Dipole Moment: [e a0]
     X:     0.0001      Y:    -0.0000      Z:    -0.0001

  Dipole Moment: [e a0]
     X:    -0.0000      Y:    -0.0000      Z:     0.0000     Total:     0.0001

  Dipole Moment: [D]
     X:    -0.0001      Y:    -0.0000      Z:     0.0000     Total:     0.0001


*** tstop() called on d-snes-l-dc-01 at Wed Oct 31 09:55:08 2018
Module time:
	user time   =       3.78 seconds =       0.06 minutes
	system time =       0.07 seconds =       0.00 minutes
	total time  =          2 seconds =       0.03 minutes
Total time:
	user time   =       3.78 seconds =       0.06 minutes
	system time =       0.07 seconds =       0.00 minutes
	total time  =          2 seconds =       0.03 minutes

*** tstart() called on d-snes-l-dc-01
*** at Wed Oct 31 09:55:08 2018


         ------------------------------------------------------------
                                   SCF GRAD                          
                          Rob Parrish, Justin Turney,                
                       Andy Simmonett, and Alex Sokolov              
         ------------------------------------------------------------

  ==> Geometry <==

    Molecular point group: c1
    Full point group: C1

    Geometry (in Angstrom), charge = 0, multiplicity = 1:

       Center              X                  Y                   Z               Mass       
    ------------   -----------------  -----------------  -----------------  -----------------
         C            0.000015842253    -0.000001194456    -0.000012070288    12.000000000000
         H           -0.675137157747     0.852336805544    -0.085400070288     1.007825032070
         H           -0.393717157747    -0.835313194456    -0.580362070288     1.007825032070
         H            0.084775842253    -0.293021194456     1.047180929712     1.007825032070
         H            0.983889842253     0.276011805544    -0.381275070288     1.007825032070

  Nuclear repulsion =   13.426927941629069

  ==> Basis Set <==

  Basis Set: 6-311++G(D,P)
    Blend: 6-311++G(D,P)
    Number of shells: 30
    Number of basis function: 50
    Number of Cartesian functions: 51
    Spherical Harmonics?: true
    Max angular momentum: 2

  ==> DFJKGrad: Density-Fitted SCF Gradients <==

    Gradient:                    1
    J tasked:                  Yes
    K tasked:                  Yes
    wK tasked:                 Yes
    Omega:               2.000E-01
    OpenMP threads:              2
    Integrals threads:           2
    Memory (MB):              1430
    Schwarz Cutoff:          0E+00
    Fitting Condition:       1E-12

   => Auxiliary Basis Set <=

  Basis Set: (6-311++G(D,P) AUX)
    Blend: AUG-CC-PVTZ-JKFIT
    Number of shells: 86
    Number of basis function: 288
    Number of Cartesian functions: 351
    Spherical Harmonics?: true
    Max angular momentum: 4

  ==> DFT Potential <==

   => Composite Functional: WB97X-D <= 

    wB97X-D Hyb-GGA Exchange-Correlation Functional

    J.-D. Chai and M. Head-Gordon, Phys. Chem. Chem. Phys. 10, 6615 (2008)

    Deriv               =              1
    GGA                 =           TRUE
    Meta                =          FALSE

    Exchange Hybrid     =           TRUE
    MP2 Hybrid          =          FALSE

   => Exchange-Correlation Functionals <=

    1.0000   wB97D range-separated functional

   => Exact (HF) Exchange <=

    0.7780            HF,LR [omega = 0.2000]
    0.2220               HF 

   => Molecular Quadrature <=

    Radial Scheme       =       TREUTLER
    Pruning Scheme      =           FLAT
    Nuclear Scheme      =       TREUTLER

    BS radius alpha     =              1
    Pruning alpha       =              1
    Radial Points       =             75
    Spherical Points    =            302
    Total Points        =         113250
    Total Blocks        =            920
    Max Points          =            256
    Max Functions       =             50


  -Total Gradient:
     Atom            X                  Y                   Z
    ------   -----------------  -----------------  -----------------
       1        0.000018802156     0.000029388823    -0.000006547345
       2       -0.000022923975    -0.000001082578     0.000001536406
       3       -0.000061856614    -0.000023254486     0.000016156035
       4        0.000021890419     0.000014187385     0.000041796666
       5        0.000012715749     0.000013890934     0.000007086468


*** tstop() called on d-snes-l-dc-01 at Wed Oct 31 09:55:09 2018
Module time:
	user time   =       1.23 seconds =       0.02 minutes
	system time =       0.02 seconds =       0.00 minutes
	total time  =          1 seconds =       0.02 minutes
Total time:
	user time   =       5.01 seconds =       0.08 minutes
	system time =       0.09 seconds =       0.00 minutes
	total time  =          3 seconds =       0.05 minutes

  Based on options and gradient (rms=2.48E-05), recommend projecting translations and projecting rotations.
hessian() will perform frequency computation by finite difference of analytic gradients.

-------------------------------------------------------------

  Using finite-differences of gradients to determine vibrational frequencies and 
  normal modes.  Resulting frequencies are only valid at stationary points.
	Generating geometries for use with 3-point formula.
	Displacement size will be 5.00e-03.
	Number of atoms is 5.
	Number of irreps is 1.
	Number of SALCS is 9.
	Translations projected? 1. Rotations projected? 1.
	Index of salcs per irrep:
	 1 :  0  1  2  3  4  5  6  7  8 
	Number of SALC's per irrep:
		 Irrep 1: 9
	Number of geometries (including reference) is 19.
	Number of displacements per irrep:
	  Irrep 1: 18

  //>>>>>>>>>>>>>>>>>>>>>>>>>>>>>>>>>>>//
  //    Loading displacement 1 of 19   //
  //<<<<<<<<<<<<<<<<<<<<<<<<<<<<<<<<<<<//
gradient() will perform analytic gradient computation.

*** tstart() called on d-snes-l-dc-01
*** at Wed Oct 31 09:55:09 2018

   => Loading Basis Set <=

    Name: 6-311++G(D,P)
    Role: ORBITAL
    Keyword: BASIS
    atoms 1   entry C          line   119 file /home/b6056633/anaconda3/share/psi4/basis/6-311ppg_d_p_.gbs 
    atoms 2-5 entry H          line    42 file /home/b6056633/anaconda3/share/psi4/basis/6-311ppg_d_p_.gbs 


         ---------------------------------------------------------
                                   SCF
            by Justin Turney, Rob Parrish, Andy Simmonett
                             and Daniel Smith
                              RKS Reference
                        2 Threads,   1907 MiB Core
         ---------------------------------------------------------

  ==> Geometry <==

    Molecular point group: c1
    Full point group: C1

    Geometry (in Angstrom), charge = 0, multiplicity = 1:

       Center              X                  Y                   Z               Mass       
    ------------   -----------------  -----------------  -----------------  -----------------
         C           -0.000367175325    -0.000001194455    -0.000012070287    12.000000000000
         H           -0.673997026502     0.852336800933    -0.085400116882     1.007825032070
         H           -0.392576980818    -0.835313197147    -0.580362097455     1.007825032070
         H            0.085915903162    -0.293021193872     1.047180935564     1.007825032070
         H            0.985029997852     0.276011812263    -0.381275002391     1.007825032070

  Running in c1 symmetry.

  Rotational constants: A =      5.27332  B =      5.27275  C =      5.27234 [cm^-1]
  Rotational constants: A = 158090.21733  B = 158073.19334  C = 158060.90167 [MHz]
  Nuclear repulsion =   13.426928708602913

  Charge       = 0
  Multiplicity = 1
  Electrons    = 10
  Nalpha       = 5
  Nbeta        = 5

  ==> Algorithm <==

  SCF Algorithm Type is DF.
  DIIS enabled.
  MOM disabled.
  Fractional occupation disabled.
  Guess Type is SAD.
  Energy threshold   = 1.00e-08
  Density threshold  = 1.00e-08
  Integral threshold = 0.00e+00

  ==> Primary Basis <==

  Basis Set: 6-311++G(D,P)
    Blend: 6-311++G(D,P)
    Number of shells: 30
    Number of basis function: 50
    Number of Cartesian functions: 51
    Spherical Harmonics?: true
    Max angular momentum: 2

  ==> DFT Potential <==

   => Composite Functional: WB97X-D <= 

    wB97X-D Hyb-GGA Exchange-Correlation Functional

    J.-D. Chai and M. Head-Gordon, Phys. Chem. Chem. Phys. 10, 6615 (2008)

    Deriv               =              1
    GGA                 =           TRUE
    Meta                =          FALSE

    Exchange Hybrid     =           TRUE
    MP2 Hybrid          =          FALSE

   => Exchange-Correlation Functionals <=

    1.0000   wB97D range-separated functional

   => Exact (HF) Exchange <=

    0.7780            HF,LR [omega = 0.2000]
    0.2220               HF 

   => Molecular Quadrature <=

    Radial Scheme       =       TREUTLER
    Pruning Scheme      =           FLAT
    Nuclear Scheme      =       TREUTLER

    BS radius alpha     =              1
    Pruning alpha       =              1
    Radial Points       =             75
    Spherical Points    =            302
    Total Points        =         113250
    Total Blocks        =            930
    Max Points          =            256
    Max Functions       =             50

   => -CHG: Empirical Dispersion <=

    Chai and Head-Gordon Dispersion Correction
    Chai, J.-D.; Head-Gordon, M. (2010), J. Chem. Phys., 132: 6615-6620

        S6 =   1.000000E+00

   => Loading Basis Set <=

    Name: (6-311++G(D,P) AUX)
    Role: JKFIT
    Keyword: DF_BASIS_SCF
    atoms 1   entry C          line   162 file /home/b6056633/anaconda3/share/psi4/basis/aug-cc-pvtz-jkfit.gbs 
    atoms 2-5 entry H          line    70 file /home/b6056633/anaconda3/share/psi4/basis/aug-cc-pvtz-jkfit.gbs 

  ==> Pre-Iterations <==

   -------------------------------------------------------
    Irrep   Nso     Nmo     Nalpha   Nbeta   Ndocc  Nsocc
   -------------------------------------------------------
     A         50      50       0       0       0       0
   -------------------------------------------------------
    Total      50      50       5       5       5       0
   -------------------------------------------------------

  ==> Integral Setup <==

  ==> DiskDFJK: Density-Fitted J/K Matrices <==

    J tasked:                  Yes
    K tasked:                  Yes
    wK tasked:                 Yes
    Omega:               2.000E-01
    OpenMP threads:              2
    Integrals threads:           2
    Memory (MB):              1430
    Algorithm:                Core
    Integral Cache:           NONE
    Schwarz Cutoff:          1E-12
    Fitting Condition:       1E-12

   => Auxiliary Basis Set <=

  Basis Set: (6-311++G(D,P) AUX)
    Blend: AUG-CC-PVTZ-JKFIT
    Number of shells: 86
    Number of basis function: 288
    Number of Cartesian functions: 351
    Spherical Harmonics?: true
    Max angular momentum: 4

  Minimum eigenvalue in the overlap matrix is 1.3435105276E-03.
  Using Symmetric Orthogonalization.

  SCF Guess: Superposition of Atomic Densities via on-the-fly atomic UHF.

  ==> Iterations <==

                           Total Energy        Delta E     RMS |[F,P]|

   @DF-RKS iter   0:   -40.50678917459054   -4.05068e+01   4.29001e-02 
   @DF-RKS iter   1:   -40.48771393704872    1.90752e-02   5.74938e-03 
   @DF-RKS iter   2:   -40.50343591999822   -1.57220e-02   4.10881e-03 DIIS
   @DF-RKS iter   3:   -40.51547579819801   -1.20399e-02   2.78404e-04 DIIS
   @DF-RKS iter   4:   -40.51555702985669   -8.12317e-05   5.56874e-05 DIIS
   @DF-RKS iter   5:   -40.51556188690235   -4.85705e-06   1.04829e-05 DIIS
   @DF-RKS iter   6:   -40.51556209547329   -2.08571e-07   1.43362e-06 DIIS
   @DF-RKS iter   7:   -40.51556210057949   -5.10620e-09   1.50770e-07 DIIS
   @DF-RKS iter   8:   -40.51556210062623   -4.67466e-11   1.24540e-08 DIIS
   @DF-RKS iter   9:   -40.51556210062667   -4.40536e-13   2.48480e-09 DIIS

  ==> Post-Iterations <==

    Orbital Energies [Eh]
    ---------------------

    Doubly Occupied:                                                      

       1A    -10.262720     2A     -0.791782     3A     -0.477159  
       4A     -0.476838     5A     -0.476368  

    Virtual:                                                              

       6A      0.043292     7A      0.082190     8A      0.082214  
       9A      0.082248    10A      0.150012    11A      0.150070  
      12A      0.150113    13A      0.176949    14A      0.262253  
      15A      0.262535    16A      0.262691    17A      0.343814  
      18A      0.487548    19A      0.487704    20A      0.487833  
      21A      0.742908    22A      0.743299    23A      0.743507  
      24A      0.760855    25A      0.913348    26A      1.047266  
      27A      1.047328    28A      1.543195    29A      1.543343  
      30A      1.543403    31A      1.633913    32A      1.634043  
      33A      1.634159    34A      2.004913    35A      2.004959  
      36A      2.005004    37A      2.401700    38A      2.401808  
      39A      2.440716    40A      2.588426    41A      2.588624  
      42A      2.588767    43A      2.654929    44A      2.656465  
      45A      2.657184    46A      3.044367    47A      3.895372  
      48A      3.897822    49A      3.899487    50A     24.164140  

    Final Occupation by Irrep:
              A 
    DOCC [     5 ]

  Energy converged.

  @DF-RKS Final Energy:   -40.51556210062667

   => Energetics <=

    Nuclear Repulsion Energy =             13.4269287086029134
    One-Electron Energy =                 -79.8404173561579569
    Two-Electron Energy =                  30.4921471487088986
    DFT Exchange-Correlation Energy =      -4.5938216736880815
    Empirical Dispersion Energy =          -0.0003989280924514
    VV10 Nonlocal Energy =                  0.0000000000000000
    Total Energy =                        -40.5155621006266813



Properties will be evaluated at   0.000000,   0.000000,   0.000000 [a0]

Properties computed using the SCF density matrix

  Nuclear Dipole Moment: [e a0]
     X:     0.0041      Y:     0.0000      Z:     0.0001

  Electronic Dipole Moment: [e a0]
     X:    -0.0041      Y:    -0.0000      Z:    -0.0001

  Dipole Moment: [e a0]
     X:     0.0000      Y:    -0.0000      Z:     0.0000     Total:     0.0000

  Dipole Moment: [D]
     X:     0.0001      Y:    -0.0000      Z:     0.0000     Total:     0.0001


*** tstop() called on d-snes-l-dc-01 at Wed Oct 31 09:55:11 2018
Module time:
	user time   =       4.03 seconds =       0.07 minutes
	system time =       0.06 seconds =       0.00 minutes
	total time  =          2 seconds =       0.03 minutes
Total time:
	user time   =       9.05 seconds =       0.15 minutes
	system time =       0.15 seconds =       0.00 minutes
	total time  =          5 seconds =       0.08 minutes

*** tstart() called on d-snes-l-dc-01
*** at Wed Oct 31 09:55:11 2018


         ------------------------------------------------------------
                                   SCF GRAD                          
                          Rob Parrish, Justin Turney,                
                       Andy Simmonett, and Alex Sokolov              
         ------------------------------------------------------------

  ==> Geometry <==

    Molecular point group: c1
    Full point group: C1

    Geometry (in Angstrom), charge = 0, multiplicity = 1:

       Center              X                  Y                   Z               Mass       
    ------------   -----------------  -----------------  -----------------  -----------------
         C           -0.000367175325    -0.000001194455    -0.000012070287    12.000000000000
         H           -0.673997026502     0.852336800933    -0.085400116882     1.007825032070
         H           -0.392576980818    -0.835313197147    -0.580362097455     1.007825032070
         H            0.085915903162    -0.293021193872     1.047180935564     1.007825032070
         H            0.985029997852     0.276011812263    -0.381275002391     1.007825032070

  Nuclear repulsion =   13.426928708602913

  ==> Basis Set <==

  Basis Set: 6-311++G(D,P)
    Blend: 6-311++G(D,P)
    Number of shells: 30
    Number of basis function: 50
    Number of Cartesian functions: 51
    Spherical Harmonics?: true
    Max angular momentum: 2

  ==> DFJKGrad: Density-Fitted SCF Gradients <==

    Gradient:                    1
    J tasked:                  Yes
    K tasked:                  Yes
    wK tasked:                 Yes
    Omega:               2.000E-01
    OpenMP threads:              2
    Integrals threads:           2
    Memory (MB):              1430
    Schwarz Cutoff:          0E+00
    Fitting Condition:       1E-12

   => Auxiliary Basis Set <=

  Basis Set: (6-311++G(D,P) AUX)
    Blend: AUG-CC-PVTZ-JKFIT
    Number of shells: 86
    Number of basis function: 288
    Number of Cartesian functions: 351
    Spherical Harmonics?: true
    Max angular momentum: 4

  ==> DFT Potential <==

   => Composite Functional: WB97X-D <= 

    wB97X-D Hyb-GGA Exchange-Correlation Functional

    J.-D. Chai and M. Head-Gordon, Phys. Chem. Chem. Phys. 10, 6615 (2008)

    Deriv               =              1
    GGA                 =           TRUE
    Meta                =          FALSE

    Exchange Hybrid     =           TRUE
    MP2 Hybrid          =          FALSE

   => Exchange-Correlation Functionals <=

    1.0000   wB97D range-separated functional

   => Exact (HF) Exchange <=

    0.7780            HF,LR [omega = 0.2000]
    0.2220               HF 

   => Molecular Quadrature <=

    Radial Scheme       =       TREUTLER
    Pruning Scheme      =           FLAT
    Nuclear Scheme      =       TREUTLER

    BS radius alpha     =              1
    Pruning alpha       =              1
    Radial Points       =             75
    Spherical Points    =            302
    Total Points        =         113250
    Total Blocks        =            930
    Max Points          =            256
    Max Functions       =             50


  -Total Gradient:
     Atom            X                  Y                   Z
    ------   -----------------  -----------------  -----------------
       1       -0.001560855271     0.000027666471    -0.000015201515
       2        0.000414692146    -0.000385157335     0.000033017821
       3        0.000171528910     0.000198299930     0.000167147208
       4        0.000157604421    -0.000005420908     0.000099254537
       5        0.000788910823     0.000188884708    -0.000242766025


*** tstop() called on d-snes-l-dc-01 at Wed Oct 31 09:55:12 2018
Module time:
	user time   =       1.21 seconds =       0.02 minutes
	system time =       0.03 seconds =       0.00 minutes
	total time  =          1 seconds =       0.02 minutes
Total time:
	user time   =      10.26 seconds =       0.17 minutes
	system time =       0.18 seconds =       0.00 minutes
	total time  =          6 seconds =       0.10 minutes

  //>>>>>>>>>>>>>>>>>>>>>>>>>>>>>>>>>>>//
  //    Loading displacement 2 of 19   //
  //<<<<<<<<<<<<<<<<<<<<<<<<<<<<<<<<<<<//
gradient() will perform analytic gradient computation.

*** tstart() called on d-snes-l-dc-01
*** at Wed Oct 31 09:55:12 2018

   => Loading Basis Set <=

    Name: 6-311++G(D,P)
    Role: ORBITAL
    Keyword: BASIS
    atoms 1   entry C          line   119 file /home/b6056633/anaconda3/share/psi4/basis/6-311ppg_d_p_.gbs 
    atoms 2-5 entry H          line    42 file /home/b6056633/anaconda3/share/psi4/basis/6-311ppg_d_p_.gbs 


         ---------------------------------------------------------
                                   SCF
            by Justin Turney, Rob Parrish, Andy Simmonett
                             and Daniel Smith
                              RKS Reference
                        2 Threads,   1907 MiB Core
         ---------------------------------------------------------

  ==> Geometry <==

    Molecular point group: c1
    Full point group: C1

    Geometry (in Angstrom), charge = 0, multiplicity = 1:

       Center              X                  Y                   Z               Mass       
    ------------   -----------------  -----------------  -----------------  -----------------
         C            0.000398859831    -0.000001194456    -0.000012070289    12.000000000000
         H           -0.676277288992     0.852336810156    -0.085400023694     1.007825032070
         H           -0.394857334677    -0.835313191764    -0.580362043121     1.007825032070
         H            0.083635781343    -0.293021195039     1.047180923861     1.007825032070
         H            0.982749686653     0.276011798825    -0.381275138184     1.007825032070

  Running in c1 symmetry.

  Rotational constants: A =      5.27332  B =      5.27275  C =      5.27234 [cm^-1]
  Rotational constants: A = 158090.18503  B = 158073.15633  C = 158060.85644 [MHz]
  Nuclear repulsion =   13.426927174828062

  Charge       = 0
  Multiplicity = 1
  Electrons    = 10
  Nalpha       = 5
  Nbeta        = 5

  ==> Algorithm <==

  SCF Algorithm Type is DF.
  DIIS enabled.
  MOM disabled.
  Fractional occupation disabled.
  Guess Type is SAD.
  Energy threshold   = 1.00e-08
  Density threshold  = 1.00e-08
  Integral threshold = 0.00e+00

  ==> Primary Basis <==

  Basis Set: 6-311++G(D,P)
    Blend: 6-311++G(D,P)
    Number of shells: 30
    Number of basis function: 50
    Number of Cartesian functions: 51
    Spherical Harmonics?: true
    Max angular momentum: 2

  ==> DFT Potential <==

   => Composite Functional: WB97X-D <= 

    wB97X-D Hyb-GGA Exchange-Correlation Functional

    J.-D. Chai and M. Head-Gordon, Phys. Chem. Chem. Phys. 10, 6615 (2008)

    Deriv               =              1
    GGA                 =           TRUE
    Meta                =          FALSE

    Exchange Hybrid     =           TRUE
    MP2 Hybrid          =          FALSE

   => Exchange-Correlation Functionals <=

    1.0000   wB97D range-separated functional

   => Exact (HF) Exchange <=

    0.7780            HF,LR [omega = 0.2000]
    0.2220               HF 

   => Molecular Quadrature <=

    Radial Scheme       =       TREUTLER
    Pruning Scheme      =           FLAT
    Nuclear Scheme      =       TREUTLER

    BS radius alpha     =              1
    Pruning alpha       =              1
    Radial Points       =             75
    Spherical Points    =            302
    Total Points        =         113250
    Total Blocks        =            937
    Max Points          =            256
    Max Functions       =             50

   => -CHG: Empirical Dispersion <=

    Chai and Head-Gordon Dispersion Correction
    Chai, J.-D.; Head-Gordon, M. (2010), J. Chem. Phys., 132: 6615-6620

        S6 =   1.000000E+00

   => Loading Basis Set <=

    Name: (6-311++G(D,P) AUX)
    Role: JKFIT
    Keyword: DF_BASIS_SCF
    atoms 1   entry C          line   162 file /home/b6056633/anaconda3/share/psi4/basis/aug-cc-pvtz-jkfit.gbs 
    atoms 2-5 entry H          line    70 file /home/b6056633/anaconda3/share/psi4/basis/aug-cc-pvtz-jkfit.gbs 

  ==> Pre-Iterations <==

   -------------------------------------------------------
    Irrep   Nso     Nmo     Nalpha   Nbeta   Ndocc  Nsocc
   -------------------------------------------------------
     A         50      50       0       0       0       0
   -------------------------------------------------------
    Total      50      50       5       5       5       0
   -------------------------------------------------------

  ==> Integral Setup <==

  ==> DiskDFJK: Density-Fitted J/K Matrices <==

    J tasked:                  Yes
    K tasked:                  Yes
    wK tasked:                 Yes
    Omega:               2.000E-01
    OpenMP threads:              2
    Integrals threads:           2
    Memory (MB):              1430
    Algorithm:                Core
    Integral Cache:           NONE
    Schwarz Cutoff:          1E-12
    Fitting Condition:       1E-12

   => Auxiliary Basis Set <=

  Basis Set: (6-311++G(D,P) AUX)
    Blend: AUG-CC-PVTZ-JKFIT
    Number of shells: 86
    Number of basis function: 288
    Number of Cartesian functions: 351
    Spherical Harmonics?: true
    Max angular momentum: 4

  Minimum eigenvalue in the overlap matrix is 1.3435108836E-03.
  Using Symmetric Orthogonalization.

  SCF Guess: Superposition of Atomic Densities via on-the-fly atomic UHF.

  ==> Iterations <==

                           Total Energy        Delta E     RMS |[F,P]|

   @DF-RKS iter   0:   -40.50648533975205   -4.05065e+01   4.16276e-02 
   @DF-RKS iter   1:   -40.48899497237417    1.74904e-02   5.47471e-03 
   @DF-RKS iter   2:   -40.50345340183866   -1.44584e-02   4.49493e-03 DIIS
   @DF-RKS iter   3:   -40.51547988233374   -1.20265e-02   2.43603e-04 DIIS
   @DF-RKS iter   4:   -40.51555766639430   -7.77841e-05   4.97280e-05 DIIS
   @DF-RKS iter   5:   -40.51556167392756   -4.00753e-06   9.67863e-06 DIIS
   @DF-RKS iter   6:   -40.51556184146852   -1.67541e-07   1.13686e-06 DIIS
   @DF-RKS iter   7:   -40.51556184523124   -3.76272e-09   1.28105e-07 DIIS
   @DF-RKS iter   8:   -40.51556184527115   -3.99112e-11   1.28485e-08 DIIS
   @DF-RKS iter   9:   -40.51556184527160   -4.47642e-13   2.10536e-09 DIIS

  ==> Post-Iterations <==

    Orbital Energies [Eh]
    ---------------------

    Doubly Occupied:                                                      

       1A    -10.262721     2A     -0.791782     3A     -0.477258  
       4A     -0.476671     5A     -0.476436  

    Virtual:                                                              

       6A      0.043292     7A      0.082182     8A      0.082227  
       9A      0.082244    10A      0.150021    11A      0.150049  
      12A      0.150125    13A      0.176949    14A      0.262294  
      15A      0.262443    16A      0.262742    17A      0.343814  
      18A      0.487570    19A      0.487643    20A      0.487871  
      21A      0.742966    22A      0.743175    23A      0.743574  
      24A      0.760854    25A      0.913348    26A      1.047267  
      27A      1.047327    28A      1.543171    29A      1.543285  
      30A      1.543483    31A      1.633977    32A      1.633999  
      33A      1.634141    34A      2.004873    35A      2.004962  
      36A      2.005040    37A      2.401697    38A      2.401806  
      39A      2.440716    40A      2.588396    41A      2.588694  
      42A      2.588730    43A      2.655113    44A      2.655986  
      45A      2.657481    46A      3.044367    47A      3.895743  
      48A      3.896961    49A      3.899975    50A     24.164140  

    Final Occupation by Irrep:
              A 
    DOCC [     5 ]

  Energy converged.

  @DF-RKS Final Energy:   -40.51556184527160

   => Energetics <=

    Nuclear Repulsion Energy =             13.4269271748280623
    One-Electron Energy =                 -79.8404137048169389
    Two-Electron Energy =                  30.4921449997502414
    DFT Exchange-Correlation Energy =      -4.5938213869352271
    Empirical Dispersion Energy =          -0.0003989280977454
    VV10 Nonlocal Energy =                  0.0000000000000000
    Total Energy =                        -40.5155618452716055



Properties will be evaluated at   0.000000,   0.000000,   0.000000 [a0]

Properties computed using the SCF density matrix

  Nuclear Dipole Moment: [e a0]
     X:    -0.0045      Y:     0.0000      Z:     0.0001

  Electronic Dipole Moment: [e a0]
     X:     0.0043      Y:    -0.0000      Z:    -0.0001

  Dipole Moment: [e a0]
     X:    -0.0001      Y:    -0.0000      Z:     0.0000     Total:     0.0001

  Dipole Moment: [D]
     X:    -0.0003      Y:    -0.0000      Z:     0.0000     Total:     0.0003


*** tstop() called on d-snes-l-dc-01 at Wed Oct 31 09:55:14 2018
Module time:
	user time   =       3.94 seconds =       0.07 minutes
	system time =       0.06 seconds =       0.00 minutes
	total time  =          2 seconds =       0.03 minutes
Total time:
	user time   =      14.22 seconds =       0.24 minutes
	system time =       0.24 seconds =       0.00 minutes
	total time  =          8 seconds =       0.13 minutes

*** tstart() called on d-snes-l-dc-01
*** at Wed Oct 31 09:55:14 2018


         ------------------------------------------------------------
                                   SCF GRAD                          
                          Rob Parrish, Justin Turney,                
                       Andy Simmonett, and Alex Sokolov              
         ------------------------------------------------------------

  ==> Geometry <==

    Molecular point group: c1
    Full point group: C1

    Geometry (in Angstrom), charge = 0, multiplicity = 1:

       Center              X                  Y                   Z               Mass       
    ------------   -----------------  -----------------  -----------------  -----------------
         C            0.000398859831    -0.000001194456    -0.000012070289    12.000000000000
         H           -0.676277288992     0.852336810156    -0.085400023694     1.007825032070
         H           -0.394857334677    -0.835313191764    -0.580362043121     1.007825032070
         H            0.083635781343    -0.293021195039     1.047180923861     1.007825032070
         H            0.982749686653     0.276011798825    -0.381275138184     1.007825032070

  Nuclear repulsion =   13.426927174828062

  ==> Basis Set <==

  Basis Set: 6-311++G(D,P)
    Blend: 6-311++G(D,P)
    Number of shells: 30
    Number of basis function: 50
    Number of Cartesian functions: 51
    Spherical Harmonics?: true
    Max angular momentum: 2

  ==> DFJKGrad: Density-Fitted SCF Gradients <==

    Gradient:                    1
    J tasked:                  Yes
    K tasked:                  Yes
    wK tasked:                 Yes
    Omega:               2.000E-01
    OpenMP threads:              2
    Integrals threads:           2
    Memory (MB):              1430
    Schwarz Cutoff:          0E+00
    Fitting Condition:       1E-12

   => Auxiliary Basis Set <=

  Basis Set: (6-311++G(D,P) AUX)
    Blend: AUG-CC-PVTZ-JKFIT
    Number of shells: 86
    Number of basis function: 288
    Number of Cartesian functions: 351
    Spherical Harmonics?: true
    Max angular momentum: 4

  ==> DFT Potential <==

   => Composite Functional: WB97X-D <= 

    wB97X-D Hyb-GGA Exchange-Correlation Functional

    J.-D. Chai and M. Head-Gordon, Phys. Chem. Chem. Phys. 10, 6615 (2008)

    Deriv               =              1
    GGA                 =           TRUE
    Meta                =          FALSE

    Exchange Hybrid     =           TRUE
    MP2 Hybrid          =          FALSE

   => Exchange-Correlation Functionals <=

    1.0000   wB97D range-separated functional

   => Exact (HF) Exchange <=

    0.7780            HF,LR [omega = 0.2000]
    0.2220               HF 

   => Molecular Quadrature <=

    Radial Scheme       =       TREUTLER
    Pruning Scheme      =           FLAT
    Nuclear Scheme      =       TREUTLER

    BS radius alpha     =              1
    Pruning alpha       =              1
    Radial Points       =             75
    Spherical Points    =            302
    Total Points        =         113250
    Total Blocks        =            937
    Max Points          =            256
    Max Functions       =             50


  -Total Gradient:
     Atom            X                  Y                   Z
    ------   -----------------  -----------------  -----------------
       1        0.001607592237     0.000027641183    -0.000018617124
       2       -0.000454302913     0.000383552658    -0.000046433573
       3       -0.000298543913    -0.000238642100    -0.000138101563
       4       -0.000113000978     0.000028450250    -0.000018436998
       5       -0.000764411003    -0.000176261644     0.000257866441


*** tstop() called on d-snes-l-dc-01 at Wed Oct 31 09:55:14 2018
Module time:
	user time   =       1.22 seconds =       0.02 minutes
	system time =       0.03 seconds =       0.00 minutes
	total time  =          0 seconds =       0.00 minutes
Total time:
	user time   =      15.44 seconds =       0.26 minutes
	system time =       0.27 seconds =       0.00 minutes
	total time  =          8 seconds =       0.13 minutes

  //>>>>>>>>>>>>>>>>>>>>>>>>>>>>>>>>>>>//
  //    Loading displacement 3 of 19   //
  //<<<<<<<<<<<<<<<<<<<<<<<<<<<<<<<<<<<//
gradient() will perform analytic gradient computation.

*** tstart() called on d-snes-l-dc-01
*** at Wed Oct 31 09:55:14 2018

   => Loading Basis Set <=

    Name: 6-311++G(D,P)
    Role: ORBITAL
    Keyword: BASIS
    atoms 1   entry C          line   119 file /home/b6056633/anaconda3/share/psi4/basis/6-311ppg_d_p_.gbs 
    atoms 2-5 entry H          line    42 file /home/b6056633/anaconda3/share/psi4/basis/6-311ppg_d_p_.gbs 


         ---------------------------------------------------------
                                   SCF
            by Justin Turney, Rob Parrish, Andy Simmonett
                             and Daniel Smith
                              RKS Reference
                        2 Threads,   1907 MiB Core
         ---------------------------------------------------------

  ==> Geometry <==

    Molecular point group: c1
    Full point group: C1

    Geometry (in Angstrom), charge = 0, multiplicity = 1:

       Center              X                  Y                   Z               Mass       
    ------------   -----------------  -----------------  -----------------  -----------------
         C            0.000015842253    -0.000384212033    -0.000012070288    12.000000000000
         H           -0.675137234938     0.853476881469    -0.085400011477     1.007825032070
         H           -0.393717082098    -0.834173058893    -0.580362127923     1.007825032070
         H            0.084775868791    -0.291881127856     1.047180909494     1.007825032070
         H            0.983889817256     0.277152052133    -0.381275051244     1.007825032070

  Running in c1 symmetry.

  Rotational constants: A =      5.27332  B =      5.27276  C =      5.27234 [cm^-1]
  Rotational constants: A = 158090.26636  B = 158073.29689  C = 158060.68754 [MHz]
  Nuclear repulsion =   13.426927827638051

  Charge       = 0
  Multiplicity = 1
  Electrons    = 10
  Nalpha       = 5
  Nbeta        = 5

  ==> Algorithm <==

  SCF Algorithm Type is DF.
  DIIS enabled.
  MOM disabled.
  Fractional occupation disabled.
  Guess Type is SAD.
  Energy threshold   = 1.00e-08
  Density threshold  = 1.00e-08
  Integral threshold = 0.00e+00

  ==> Primary Basis <==

  Basis Set: 6-311++G(D,P)
    Blend: 6-311++G(D,P)
    Number of shells: 30
    Number of basis function: 50
    Number of Cartesian functions: 51
    Spherical Harmonics?: true
    Max angular momentum: 2

  ==> DFT Potential <==

   => Composite Functional: WB97X-D <= 

    wB97X-D Hyb-GGA Exchange-Correlation Functional

    J.-D. Chai and M. Head-Gordon, Phys. Chem. Chem. Phys. 10, 6615 (2008)

    Deriv               =              1
    GGA                 =           TRUE
    Meta                =          FALSE

    Exchange Hybrid     =           TRUE
    MP2 Hybrid          =          FALSE

   => Exchange-Correlation Functionals <=

    1.0000   wB97D range-separated functional

   => Exact (HF) Exchange <=

    0.7780            HF,LR [omega = 0.2000]
    0.2220               HF 

   => Molecular Quadrature <=

    Radial Scheme       =       TREUTLER
    Pruning Scheme      =           FLAT
    Nuclear Scheme      =       TREUTLER

    BS radius alpha     =              1
    Pruning alpha       =              1
    Radial Points       =             75
    Spherical Points    =            302
    Total Points        =         113250
    Total Blocks        =            925
    Max Points          =            256
    Max Functions       =             50

   => -CHG: Empirical Dispersion <=

    Chai and Head-Gordon Dispersion Correction
    Chai, J.-D.; Head-Gordon, M. (2010), J. Chem. Phys., 132: 6615-6620

        S6 =   1.000000E+00

   => Loading Basis Set <=

    Name: (6-311++G(D,P) AUX)
    Role: JKFIT
    Keyword: DF_BASIS_SCF
    atoms 1   entry C          line   162 file /home/b6056633/anaconda3/share/psi4/basis/aug-cc-pvtz-jkfit.gbs 
    atoms 2-5 entry H          line    70 file /home/b6056633/anaconda3/share/psi4/basis/aug-cc-pvtz-jkfit.gbs 

  ==> Pre-Iterations <==

   -------------------------------------------------------
    Irrep   Nso     Nmo     Nalpha   Nbeta   Ndocc  Nsocc
   -------------------------------------------------------
     A         50      50       0       0       0       0
   -------------------------------------------------------
    Total      50      50       5       5       5       0
   -------------------------------------------------------

  ==> Integral Setup <==

  ==> DiskDFJK: Density-Fitted J/K Matrices <==

    J tasked:                  Yes
    K tasked:                  Yes
    wK tasked:                 Yes
    Omega:               2.000E-01
    OpenMP threads:              2
    Integrals threads:           2
    Memory (MB):              1430
    Algorithm:                Core
    Integral Cache:           NONE
    Schwarz Cutoff:          1E-12
    Fitting Condition:       1E-12

   => Auxiliary Basis Set <=

  Basis Set: (6-311++G(D,P) AUX)
    Blend: AUG-CC-PVTZ-JKFIT
    Number of shells: 86
    Number of basis function: 288
    Number of Cartesian functions: 351
    Spherical Harmonics?: true
    Max angular momentum: 4

  Minimum eigenvalue in the overlap matrix is 1.3435107326E-03.
  Using Symmetric Orthogonalization.

  SCF Guess: Superposition of Atomic Densities via on-the-fly atomic UHF.

  ==> Iterations <==

                           Total Energy        Delta E     RMS |[F,P]|

   @DF-RKS iter   0:   -40.50632774127485   -4.05063e+01   4.85294e-02 
   @DF-RKS iter   1:   -40.48682972521847    1.94980e-02   5.81769e-03 
   @DF-RKS iter   2:   -40.50338177707245   -1.65521e-02   3.92752e-03 DIIS
   @DF-RKS iter   3:   -40.51547245560715   -1.20907e-02   2.94243e-04 DIIS
   @DF-RKS iter   4:   -40.51555625726260   -8.38017e-05   6.43959e-05 DIIS
   @DF-RKS iter   5:   -40.51556140743813   -5.15018e-06   1.16990e-05 DIIS
   @DF-RKS iter   6:   -40.51556163625412   -2.28816e-07   1.46835e-06 DIIS
   @DF-RKS iter   7:   -40.51556164222137   -5.96725e-09   1.54461e-07 DIIS
   @DF-RKS iter   8:   -40.51556164227108   -4.97096e-11   1.37779e-08 DIIS
   @DF-RKS iter   9:   -40.51556164227155   -4.68958e-13   2.23918e-09 DIIS

  ==> Post-Iterations <==

    Orbital Energies [Eh]
    ---------------------

    Doubly Occupied:                                                      

       1A    -10.262721     2A     -0.791782     3A     -0.477183  
       4A     -0.476820     5A     -0.476363  

    Virtual:                                                              

       6A      0.043292     7A      0.082188     8A      0.082214  
       9A      0.082250    10A      0.150010    11A      0.150071  
      12A      0.150114    13A      0.176949    14A      0.262266  
      15A      0.262498    16A      0.262715    17A      0.343814  
      18A      0.487536    19A      0.487715    20A      0.487833  
      21A      0.742933    22A      0.743238    23A      0.743542  
      24A      0.760854    25A      0.913348    26A      1.047261  
      27A      1.047331    28A      1.543181    29A      1.543318  
      30A      1.543439    31A      1.633946    32A      1.634054  
      33A      1.634117    34A      2.004883    35A      2.004967  
      36A      2.005024    37A      2.401714    38A      2.401789  
      39A      2.440715    40A      2.588465    41A      2.588551  
      42A      2.588801    43A      2.655028    44A      2.656162  
      45A      2.657386    46A      3.044366    47A      3.895350  
      48A      3.897728    49A      3.899601    50A     24.164140  

    Final Occupation by Irrep:
              A 
    DOCC [     5 ]

  Energy converged.

  @DF-RKS Final Energy:   -40.51556164227155

   => Energetics <=

    Nuclear Repulsion Energy =             13.4269278276380515
    One-Electron Energy =                 -79.8404132480527835
    Two-Electron Energy =                  30.4921436137564186
    DFT Exchange-Correlation Energy =      -4.5938209075181060
    Empirical Dispersion Energy =          -0.0003989280951330
    VV10 Nonlocal Energy =                  0.0000000000000000
    Total Energy =                        -40.5155616422715497



Properties will be evaluated at   0.000000,   0.000000,   0.000000 [a0]

Properties computed using the SCF density matrix

  Nuclear Dipole Moment: [e a0]
     X:    -0.0002      Y:     0.0043      Z:     0.0001

  Electronic Dipole Moment: [e a0]
     X:     0.0001      Y:    -0.0042      Z:    -0.0001

  Dipole Moment: [e a0]
     X:    -0.0001      Y:     0.0001      Z:     0.0000     Total:     0.0001

  Dipole Moment: [D]
     X:    -0.0001      Y:     0.0002      Z:     0.0001     Total:     0.0002


*** tstop() called on d-snes-l-dc-01 at Wed Oct 31 09:55:16 2018
Module time:
	user time   =       3.87 seconds =       0.06 minutes
	system time =       0.04 seconds =       0.00 minutes
	total time  =          2 seconds =       0.03 minutes
Total time:
	user time   =      19.33 seconds =       0.32 minutes
	system time =       0.31 seconds =       0.01 minutes
	total time  =         10 seconds =       0.17 minutes

*** tstart() called on d-snes-l-dc-01
*** at Wed Oct 31 09:55:16 2018


         ------------------------------------------------------------
                                   SCF GRAD                          
                          Rob Parrish, Justin Turney,                
                       Andy Simmonett, and Alex Sokolov              
         ------------------------------------------------------------

  ==> Geometry <==

    Molecular point group: c1
    Full point group: C1

    Geometry (in Angstrom), charge = 0, multiplicity = 1:

       Center              X                  Y                   Z               Mass       
    ------------   -----------------  -----------------  -----------------  -----------------
         C            0.000015842253    -0.000384212033    -0.000012070288    12.000000000000
         H           -0.675137234938     0.853476881469    -0.085400011477     1.007825032070
         H           -0.393717082098    -0.834173058893    -0.580362127923     1.007825032070
         H            0.084775868791    -0.291881127856     1.047180909494     1.007825032070
         H            0.983889817256     0.277152052133    -0.381275051244     1.007825032070

  Nuclear repulsion =   13.426927827638051

  ==> Basis Set <==

  Basis Set: 6-311++G(D,P)
    Blend: 6-311++G(D,P)
    Number of shells: 30
    Number of basis function: 50
    Number of Cartesian functions: 51
    Spherical Harmonics?: true
    Max angular momentum: 2

  ==> DFJKGrad: Density-Fitted SCF Gradients <==

    Gradient:                    1
    J tasked:                  Yes
    K tasked:                  Yes
    wK tasked:                 Yes
    Omega:               2.000E-01
    OpenMP threads:              2
    Integrals threads:           2
    Memory (MB):              1430
    Schwarz Cutoff:          0E+00
    Fitting Condition:       1E-12

   => Auxiliary Basis Set <=

  Basis Set: (6-311++G(D,P) AUX)
    Blend: AUG-CC-PVTZ-JKFIT
    Number of shells: 86
    Number of basis function: 288
    Number of Cartesian functions: 351
    Spherical Harmonics?: true
    Max angular momentum: 4

  ==> DFT Potential <==

   => Composite Functional: WB97X-D <= 

    wB97X-D Hyb-GGA Exchange-Correlation Functional

    J.-D. Chai and M. Head-Gordon, Phys. Chem. Chem. Phys. 10, 6615 (2008)

    Deriv               =              1
    GGA                 =           TRUE
    Meta                =          FALSE

    Exchange Hybrid     =           TRUE
    MP2 Hybrid          =          FALSE

   => Exchange-Correlation Functionals <=

    1.0000   wB97D range-separated functional

   => Exact (HF) Exchange <=

    0.7780            HF,LR [omega = 0.2000]
    0.2220               HF 

   => Molecular Quadrature <=

    Radial Scheme       =       TREUTLER
    Pruning Scheme      =           FLAT
    Nuclear Scheme      =       TREUTLER

    BS radius alpha     =              1
    Pruning alpha       =              1
    Radial Points       =             75
    Spherical Points    =            302
    Total Points        =         113250
    Total Blocks        =            925
    Max Points          =            256
    Max Functions       =             50


  -Total Gradient:
     Atom            X                  Y                   Z
    ------   -----------------  -----------------  -----------------
       1        0.000007393144    -0.001555314192    -0.000008093921
       2       -0.000408386242     0.000612908427    -0.000042288424
       3        0.000157545479     0.000577025283     0.000344815761
       4        0.000002278913     0.000200807352    -0.000164091688
       5        0.000191255078     0.000200968452    -0.000068332701


*** tstop() called on d-snes-l-dc-01 at Wed Oct 31 09:55:17 2018
Module time:
	user time   =       1.25 seconds =       0.02 minutes
	system time =       0.02 seconds =       0.00 minutes
	total time  =          1 seconds =       0.02 minutes
Total time:
	user time   =      20.58 seconds =       0.34 minutes
	system time =       0.33 seconds =       0.01 minutes
	total time  =         11 seconds =       0.18 minutes

  //>>>>>>>>>>>>>>>>>>>>>>>>>>>>>>>>>>>//
  //    Loading displacement 4 of 19   //
  //<<<<<<<<<<<<<<<<<<<<<<<<<<<<<<<<<<<//
gradient() will perform analytic gradient computation.

*** tstart() called on d-snes-l-dc-01
*** at Wed Oct 31 09:55:17 2018

   => Loading Basis Set <=

    Name: 6-311++G(D,P)
    Role: ORBITAL
    Keyword: BASIS
    atoms 1   entry C          line   119 file /home/b6056633/anaconda3/share/psi4/basis/6-311ppg_d_p_.gbs 
    atoms 2-5 entry H          line    42 file /home/b6056633/anaconda3/share/psi4/basis/6-311ppg_d_p_.gbs 


         ---------------------------------------------------------
                                   SCF
            by Justin Turney, Rob Parrish, Andy Simmonett
                             and Daniel Smith
                              RKS Reference
                        2 Threads,   1907 MiB Core
         ---------------------------------------------------------

  ==> Geometry <==

    Molecular point group: c1
    Full point group: C1

    Geometry (in Angstrom), charge = 0, multiplicity = 1:

       Center              X                  Y                   Z               Mass       
    ------------   -----------------  -----------------  -----------------  -----------------
         C            0.000015842253     0.000381823122    -0.000012070288    12.000000000000
         H           -0.675137080556     0.851196729620    -0.085400129098     1.007825032070
         H           -0.393717233397    -0.836453330019    -0.580362012653     1.007825032070
         H            0.084775815714    -0.294161261055     1.047180949930     1.007825032070
         H            0.983889867250     0.274871558956    -0.381275089331     1.007825032070

  Running in c1 symmetry.

  Rotational constants: A =      5.27332  B =      5.27276  C =      5.27234 [cm^-1]
  Rotational constants: A = 158090.30429  B = 158073.26575  C = 158060.68940 [MHz]
  Nuclear repulsion =   13.426928057871839

  Charge       = 0
  Multiplicity = 1
  Electrons    = 10
  Nalpha       = 5
  Nbeta        = 5

  ==> Algorithm <==

  SCF Algorithm Type is DF.
  DIIS enabled.
  MOM disabled.
  Fractional occupation disabled.
  Guess Type is SAD.
  Energy threshold   = 1.00e-08
  Density threshold  = 1.00e-08
  Integral threshold = 0.00e+00

  ==> Primary Basis <==

  Basis Set: 6-311++G(D,P)
    Blend: 6-311++G(D,P)
    Number of shells: 30
    Number of basis function: 50
    Number of Cartesian functions: 51
    Spherical Harmonics?: true
    Max angular momentum: 2

  ==> DFT Potential <==

   => Composite Functional: WB97X-D <= 

    wB97X-D Hyb-GGA Exchange-Correlation Functional

    J.-D. Chai and M. Head-Gordon, Phys. Chem. Chem. Phys. 10, 6615 (2008)

    Deriv               =              1
    GGA                 =           TRUE
    Meta                =          FALSE

    Exchange Hybrid     =           TRUE
    MP2 Hybrid          =          FALSE

   => Exchange-Correlation Functionals <=

    1.0000   wB97D range-separated functional

   => Exact (HF) Exchange <=

    0.7780            HF,LR [omega = 0.2000]
    0.2220               HF 

   => Molecular Quadrature <=

    Radial Scheme       =       TREUTLER
    Pruning Scheme      =           FLAT
    Nuclear Scheme      =       TREUTLER

    BS radius alpha     =              1
    Pruning alpha       =              1
    Radial Points       =             75
    Spherical Points    =            302
    Total Points        =         113250
    Total Blocks        =            922
    Max Points          =            256
    Max Functions       =             50

   => -CHG: Empirical Dispersion <=

    Chai and Head-Gordon Dispersion Correction
    Chai, J.-D.; Head-Gordon, M. (2010), J. Chem. Phys., 132: 6615-6620

        S6 =   1.000000E+00

   => Loading Basis Set <=

    Name: (6-311++G(D,P) AUX)
    Role: JKFIT
    Keyword: DF_BASIS_SCF
    atoms 1   entry C          line   162 file /home/b6056633/anaconda3/share/psi4/basis/aug-cc-pvtz-jkfit.gbs 
    atoms 2-5 entry H          line    70 file /home/b6056633/anaconda3/share/psi4/basis/aug-cc-pvtz-jkfit.gbs 

  ==> Pre-Iterations <==

   -------------------------------------------------------
    Irrep   Nso     Nmo     Nalpha   Nbeta   Ndocc  Nsocc
   -------------------------------------------------------
     A         50      50       0       0       0       0
   -------------------------------------------------------
    Total      50      50       5       5       5       0
   -------------------------------------------------------

  ==> Integral Setup <==

  ==> DiskDFJK: Density-Fitted J/K Matrices <==

    J tasked:                  Yes
    K tasked:                  Yes
    wK tasked:                 Yes
    Omega:               2.000E-01
    OpenMP threads:              2
    Integrals threads:           2
    Memory (MB):              1430
    Algorithm:                Core
    Integral Cache:           NONE
    Schwarz Cutoff:          1E-12
    Fitting Condition:       1E-12

   => Auxiliary Basis Set <=

  Basis Set: (6-311++G(D,P) AUX)
    Blend: AUG-CC-PVTZ-JKFIT
    Number of shells: 86
    Number of basis function: 288
    Number of Cartesian functions: 351
    Spherical Harmonics?: true
    Max angular momentum: 4

  Minimum eigenvalue in the overlap matrix is 1.3435106883E-03.
  Using Symmetric Orthogonalization.

  SCF Guess: Superposition of Atomic Densities via on-the-fly atomic UHF.

  ==> Iterations <==

                           Total Energy        Delta E     RMS |[F,P]|

   @DF-RKS iter   0:   -40.50657560494682   -4.05066e+01   4.16243e-02 
   @DF-RKS iter   1:   -40.48855339446642    1.80222e-02   5.50674e-03 
   @DF-RKS iter   2:   -40.50345710501058   -1.49037e-02   4.24758e-03 DIIS
   @DF-RKS iter   3:   -40.51547837699633   -1.20213e-02   2.40773e-04 DIIS
   @DF-RKS iter   4:   -40.51555729540624   -7.89184e-05   5.30846e-05 DIIS
   @DF-RKS iter   5:   -40.51556165314879   -4.35774e-06   1.07720e-05 DIIS
   @DF-RKS iter   6:   -40.51556183623284   -1.83084e-07   1.27263e-06 DIIS
   @DF-RKS iter   7:   -40.51556184046390   -4.23106e-09   1.33079e-07 DIIS
   @DF-RKS iter   8:   -40.51556184050663   -4.27320e-11   1.43940e-08 DIIS
   @DF-RKS iter   9:   -40.51556184050707   -4.33431e-13   1.91114e-09 DIIS

  ==> Post-Iterations <==

    Orbital Energies [Eh]
    ---------------------

    Doubly Occupied:                                                      

       1A    -10.262721     2A     -0.791782     3A     -0.477186  
       4A     -0.476812     5A     -0.476367  

    Virtual:                                                              

       6A      0.043292     7A      0.082189     8A      0.082215  
       9A      0.082249    10A      0.150010    11A      0.150070  
      12A      0.150115    13A      0.176949    14A      0.262267  
      15A      0.262493    16A      0.262719    17A      0.343814  
      18A      0.487537    19A      0.487712    20A      0.487835  
      21A      0.742933    22A      0.743232    23A      0.743549  
      24A      0.760854    25A      0.913348    26A      1.047261  
      27A      1.047331    28A      1.543178    29A      1.543308  
      30A      1.543453    31A      1.633914    32A      1.634049  
      33A      1.634153    34A      2.004905    35A      2.004936  
      36A      2.005032    37A      2.401715    38A      2.401789  
      39A      2.440716    40A      2.588466    41A      2.588550  
      42A      2.588802    43A      2.655054    44A      2.656136  
      45A      2.657387    46A      3.044366    47A      3.895376  
      48A      3.897693    49A      3.899611    50A     24.164140  

    Final Occupation by Irrep:
              A 
    DOCC [     5 ]

  Energy converged.

  @DF-RKS Final Energy:   -40.51556184050707

   => Energetics <=

    Nuclear Repulsion Energy =             13.4269280578718391
    One-Electron Energy =                 -79.8404145465593729
    Two-Electron Energy =                  30.4921448109358266
    DFT Exchange-Correlation Energy =      -4.5938212346602780
    Empirical Dispersion Energy =          -0.0003989280950748
    VV10 Nonlocal Energy =                  0.0000000000000000
    Total Energy =                        -40.5155618405070612



Properties will be evaluated at   0.000000,   0.000000,   0.000000 [a0]

Properties computed using the SCF density matrix

  Nuclear Dipole Moment: [e a0]
     X:    -0.0002      Y:    -0.0043      Z:     0.0001

  Electronic Dipole Moment: [e a0]
     X:     0.0001      Y:     0.0042      Z:    -0.0001

  Dipole Moment: [e a0]
     X:    -0.0001      Y:    -0.0001      Z:     0.0000     Total:     0.0001

  Dipole Moment: [D]
     X:    -0.0001      Y:    -0.0002      Z:     0.0001     Total:     0.0003


*** tstop() called on d-snes-l-dc-01 at Wed Oct 31 09:55:19 2018
Module time:
	user time   =       3.87 seconds =       0.06 minutes
	system time =       0.02 seconds =       0.00 minutes
	total time  =          2 seconds =       0.03 minutes
Total time:
	user time   =      24.47 seconds =       0.41 minutes
	system time =       0.35 seconds =       0.01 minutes
	total time  =         13 seconds =       0.22 minutes

*** tstart() called on d-snes-l-dc-01
*** at Wed Oct 31 09:55:19 2018


         ------------------------------------------------------------
                                   SCF GRAD                          
                          Rob Parrish, Justin Turney,                
                       Andy Simmonett, and Alex Sokolov              
         ------------------------------------------------------------

  ==> Geometry <==

    Molecular point group: c1
    Full point group: C1

    Geometry (in Angstrom), charge = 0, multiplicity = 1:

       Center              X                  Y                   Z               Mass       
    ------------   -----------------  -----------------  -----------------  -----------------
         C            0.000015842253     0.000381823122    -0.000012070288    12.000000000000
         H           -0.675137080556     0.851196729620    -0.085400129098     1.007825032070
         H           -0.393717233397    -0.836453330019    -0.580362012653     1.007825032070
         H            0.084775815714    -0.294161261055     1.047180949930     1.007825032070
         H            0.983889867250     0.274871558956    -0.381275089331     1.007825032070

  Nuclear repulsion =   13.426928057871839

  ==> Basis Set <==

  Basis Set: 6-311++G(D,P)
    Blend: 6-311++G(D,P)
    Number of shells: 30
    Number of basis function: 50
    Number of Cartesian functions: 51
    Spherical Harmonics?: true
    Max angular momentum: 2

  ==> DFJKGrad: Density-Fitted SCF Gradients <==

    Gradient:                    1
    J tasked:                  Yes
    K tasked:                  Yes
    wK tasked:                 Yes
    Omega:               2.000E-01
    OpenMP threads:              2
    Integrals threads:           2
    Memory (MB):              1430
    Schwarz Cutoff:          0E+00
    Fitting Condition:       1E-12

   => Auxiliary Basis Set <=

  Basis Set: (6-311++G(D,P) AUX)
    Blend: AUG-CC-PVTZ-JKFIT
    Number of shells: 86
    Number of basis function: 288
    Number of Cartesian functions: 351
    Spherical Harmonics?: true
    Max angular momentum: 4

  ==> DFT Potential <==

   => Composite Functional: WB97X-D <= 

    wB97X-D Hyb-GGA Exchange-Correlation Functional

    J.-D. Chai and M. Head-Gordon, Phys. Chem. Chem. Phys. 10, 6615 (2008)

    Deriv               =              1
    GGA                 =           TRUE
    Meta                =          FALSE

    Exchange Hybrid     =           TRUE
    MP2 Hybrid          =          FALSE

   => Exchange-Correlation Functionals <=

    1.0000   wB97D range-separated functional

   => Exact (HF) Exchange <=

    0.7780            HF,LR [omega = 0.2000]
    0.2220               HF 

   => Molecular Quadrature <=

    Radial Scheme       =       TREUTLER
    Pruning Scheme      =           FLAT
    Nuclear Scheme      =       TREUTLER

    BS radius alpha     =              1
    Pruning alpha       =              1
    Radial Points       =             75
    Spherical Points    =            302
    Total Points        =         113250
    Total Blocks        =            922
    Max Points          =            256
    Max Functions       =             50


  -Total Gradient:
     Atom            X                  Y                   Z
    ------   -----------------  -----------------  -----------------
       1        0.000008251750     0.001613806624    -0.000008044496
       2        0.000359992567    -0.000619175349     0.000054825990
       3       -0.000281041930    -0.000618318913    -0.000300765749
       4        0.000037139656    -0.000174756346     0.000246165907
       5       -0.000172361856    -0.000160363922     0.000070923386


*** tstop() called on d-snes-l-dc-01 at Wed Oct 31 09:55:20 2018
Module time:
	user time   =       1.22 seconds =       0.02 minutes
	system time =       0.03 seconds =       0.00 minutes
	total time  =          1 seconds =       0.02 minutes
Total time:
	user time   =      25.69 seconds =       0.43 minutes
	system time =       0.38 seconds =       0.01 minutes
	total time  =         14 seconds =       0.23 minutes

  //>>>>>>>>>>>>>>>>>>>>>>>>>>>>>>>>>>>//
  //    Loading displacement 5 of 19   //
  //<<<<<<<<<<<<<<<<<<<<<<<<<<<<<<<<<<<//
gradient() will perform analytic gradient computation.

*** tstart() called on d-snes-l-dc-01
*** at Wed Oct 31 09:55:20 2018

   => Loading Basis Set <=

    Name: 6-311++G(D,P)
    Role: ORBITAL
    Keyword: BASIS
    atoms 1   entry C          line   119 file /home/b6056633/anaconda3/share/psi4/basis/6-311ppg_d_p_.gbs 
    atoms 2-5 entry H          line    42 file /home/b6056633/anaconda3/share/psi4/basis/6-311ppg_d_p_.gbs 


         ---------------------------------------------------------
                                   SCF
            by Justin Turney, Rob Parrish, Andy Simmonett
                             and Daniel Smith
                              RKS Reference
                        2 Threads,   1907 MiB Core
         ---------------------------------------------------------

  ==> Geometry <==

    Molecular point group: c1
    Full point group: C1

    Geometry (in Angstrom), charge = 0, multiplicity = 1:

       Center              X                  Y                   Z               Mass       
    ------------   -----------------  -----------------  -----------------  -----------------
         C            0.000015842253    -0.000001194456    -0.000395087865    12.000000000000
         H           -0.675137150011     0.852336804959    -0.084260006088     1.007825032070
         H           -0.393717105175    -0.835313198423    -0.579221969067     1.007825032070
         H            0.084775747409    -0.293021187300     1.048321070567     1.007825032070
         H            0.983889876789     0.276011802942    -0.380134851884     1.007825032070

  Running in c1 symmetry.

  Rotational constants: A =      5.27332  B =      5.27276  C =      5.27234 [cm^-1]
  Rotational constants: A = 158090.16782  B = 158073.25373  C = 158060.78989 [MHz]
  Nuclear repulsion =   13.426927641138574

  Charge       = 0
  Multiplicity = 1
  Electrons    = 10
  Nalpha       = 5
  Nbeta        = 5

  ==> Algorithm <==

  SCF Algorithm Type is DF.
  DIIS enabled.
  MOM disabled.
  Fractional occupation disabled.
  Guess Type is SAD.
  Energy threshold   = 1.00e-08
  Density threshold  = 1.00e-08
  Integral threshold = 0.00e+00

  ==> Primary Basis <==

  Basis Set: 6-311++G(D,P)
    Blend: 6-311++G(D,P)
    Number of shells: 30
    Number of basis function: 50
    Number of Cartesian functions: 51
    Spherical Harmonics?: true
    Max angular momentum: 2

  ==> DFT Potential <==

   => Composite Functional: WB97X-D <= 

    wB97X-D Hyb-GGA Exchange-Correlation Functional

    J.-D. Chai and M. Head-Gordon, Phys. Chem. Chem. Phys. 10, 6615 (2008)

    Deriv               =              1
    GGA                 =           TRUE
    Meta                =          FALSE

    Exchange Hybrid     =           TRUE
    MP2 Hybrid          =          FALSE

   => Exchange-Correlation Functionals <=

    1.0000   wB97D range-separated functional

   => Exact (HF) Exchange <=

    0.7780            HF,LR [omega = 0.2000]
    0.2220               HF 

   => Molecular Quadrature <=

    Radial Scheme       =       TREUTLER
    Pruning Scheme      =           FLAT
    Nuclear Scheme      =       TREUTLER

    BS radius alpha     =              1
    Pruning alpha       =              1
    Radial Points       =             75
    Spherical Points    =            302
    Total Points        =         113250
    Total Blocks        =            926
    Max Points          =            256
    Max Functions       =             50

   => -CHG: Empirical Dispersion <=

    Chai and Head-Gordon Dispersion Correction
    Chai, J.-D.; Head-Gordon, M. (2010), J. Chem. Phys., 132: 6615-6620

        S6 =   1.000000E+00

   => Loading Basis Set <=

    Name: (6-311++G(D,P) AUX)
    Role: JKFIT
    Keyword: DF_BASIS_SCF
    atoms 1   entry C          line   162 file /home/b6056633/anaconda3/share/psi4/basis/aug-cc-pvtz-jkfit.gbs 
    atoms 2-5 entry H          line    70 file /home/b6056633/anaconda3/share/psi4/basis/aug-cc-pvtz-jkfit.gbs 

  ==> Pre-Iterations <==

   -------------------------------------------------------
    Irrep   Nso     Nmo     Nalpha   Nbeta   Ndocc  Nsocc
   -------------------------------------------------------
     A         50      50       0       0       0       0
   -------------------------------------------------------
    Total      50      50       5       5       5       0
   -------------------------------------------------------

  ==> Integral Setup <==

  ==> DiskDFJK: Density-Fitted J/K Matrices <==

    J tasked:                  Yes
    K tasked:                  Yes
    wK tasked:                 Yes
    Omega:               2.000E-01
    OpenMP threads:              2
    Integrals threads:           2
    Memory (MB):              1430
    Algorithm:                Core
    Integral Cache:           NONE
    Schwarz Cutoff:          1E-12
    Fitting Condition:       1E-12

   => Auxiliary Basis Set <=

  Basis Set: (6-311++G(D,P) AUX)
    Blend: AUG-CC-PVTZ-JKFIT
    Number of shells: 86
    Number of basis function: 288
    Number of Cartesian functions: 351
    Spherical Harmonics?: true
    Max angular momentum: 4

  Minimum eigenvalue in the overlap matrix is 1.3435107865E-03.
  Using Symmetric Orthogonalization.

  SCF Guess: Superposition of Atomic Densities via on-the-fly atomic UHF.

  ==> Iterations <==

                           Total Energy        Delta E     RMS |[F,P]|

   @DF-RKS iter   0:   -40.50663108396208   -4.05066e+01   4.43273e-02 
   @DF-RKS iter   1:   -40.49048959938537    1.61415e-02   5.44549e-03 
   @DF-RKS iter   2:   -40.50348249558804   -1.29929e-02   3.79215e-03 DIIS
   @DF-RKS iter   3:   -40.51548469298098   -1.20022e-02   2.14935e-04 DIIS
   @DF-RKS iter   4:   -40.51556037892335   -7.56859e-05   3.53784e-05 DIIS
   @DF-RKS iter   5:   -40.51556269593921   -2.31702e-06   7.14272e-06 DIIS
   @DF-RKS iter   6:   -40.51556278354634   -8.76071e-08   1.06018e-06 DIIS
   @DF-RKS iter   7:   -40.51556278565803   -2.11169e-09   1.06861e-07 DIIS
   @DF-RKS iter   8:   -40.51556278568685   -2.88125e-11   1.00668e-08 DIIS
   @DF-RKS iter   9:   -40.51556278568712   -2.77112e-13   1.41577e-09 DIIS

  ==> Post-Iterations <==

    Orbital Energies [Eh]
    ---------------------

    Doubly Occupied:                                                      

       1A    -10.262719     2A     -0.791781     3A     -0.477124  
       4A     -0.476922     5A     -0.476318  

    Virtual:                                                              

       6A      0.043292     7A      0.082192     8A      0.082208  
       9A      0.082253    10A      0.150005    11A      0.150081  
      12A      0.150108    13A      0.176949    14A      0.262235  
      15A      0.262571    16A      0.262674    17A      0.343814  
      18A      0.487524    19A      0.487743    20A      0.487819  
      21A      0.742886    22A      0.743345    23A      0.743483  
      24A      0.760855    25A      0.913348    26A      1.047265  
      27A      1.047332    28A      1.543157    29A      1.543351  
      30A      1.543434    31A      1.633940    32A      1.634061  
      33A      1.634115    34A      2.004883    35A      2.004953  
      36A      2.005039    37A      2.401704    38A      2.401799  
      39A      2.440716    40A      2.588445    41A      2.588569  
      42A      2.588807    43A      2.654847    44A      2.656600  
      45A      2.657137    46A      3.044367    47A      3.895129  
      48A      3.898239    49A      3.899314    50A     24.164142  

    Final Occupation by Irrep:
              A 
    DOCC [     5 ]

  Energy converged.

  @DF-RKS Final Energy:   -40.51556278568712

   => Energetics <=

    Nuclear Repulsion Energy =             13.4269276411385743
    One-Electron Energy =                 -79.8404193546205647
    Two-Electron Energy =                  30.4921504904975897
    DFT Exchange-Correlation Energy =      -4.5938226346046482
    Empirical Dispersion Energy =          -0.0003989280980782
    VV10 Nonlocal Energy =                  0.0000000000000000
    Total Energy =                        -40.5155627856871234



Properties will be evaluated at   0.000000,   0.000000,   0.000000 [a0]

Properties computed using the SCF density matrix

  Nuclear Dipole Moment: [e a0]
     X:    -0.0002      Y:     0.0000      Z:     0.0044

  Electronic Dipole Moment: [e a0]
     X:     0.0001      Y:    -0.0000      Z:    -0.0043

  Dipole Moment: [e a0]
     X:    -0.0000      Y:    -0.0000      Z:     0.0001     Total:     0.0001

  Dipole Moment: [D]
     X:    -0.0001      Y:    -0.0001      Z:     0.0003     Total:     0.0003


*** tstop() called on d-snes-l-dc-01 at Wed Oct 31 09:55:22 2018
Module time:
	user time   =       3.89 seconds =       0.06 minutes
	system time =       0.07 seconds =       0.00 minutes
	total time  =          2 seconds =       0.03 minutes
Total time:
	user time   =      29.59 seconds =       0.49 minutes
	system time =       0.45 seconds =       0.01 minutes
	total time  =         16 seconds =       0.27 minutes

*** tstart() called on d-snes-l-dc-01
*** at Wed Oct 31 09:55:22 2018


         ------------------------------------------------------------
                                   SCF GRAD                          
                          Rob Parrish, Justin Turney,                
                       Andy Simmonett, and Alex Sokolov              
         ------------------------------------------------------------

  ==> Geometry <==

    Molecular point group: c1
    Full point group: C1

    Geometry (in Angstrom), charge = 0, multiplicity = 1:

       Center              X                  Y                   Z               Mass       
    ------------   -----------------  -----------------  -----------------  -----------------
         C            0.000015842253    -0.000001194456    -0.000395087865    12.000000000000
         H           -0.675137150011     0.852336804959    -0.084260006088     1.007825032070
         H           -0.393717105175    -0.835313198423    -0.579221969067     1.007825032070
         H            0.084775747409    -0.293021187300     1.048321070567     1.007825032070
         H            0.983889876789     0.276011802942    -0.380134851884     1.007825032070

  Nuclear repulsion =   13.426927641138574

  ==> Basis Set <==

  Basis Set: 6-311++G(D,P)
    Blend: 6-311++G(D,P)
    Number of shells: 30
    Number of basis function: 50
    Number of Cartesian functions: 51
    Spherical Harmonics?: true
    Max angular momentum: 2

  ==> DFJKGrad: Density-Fitted SCF Gradients <==

    Gradient:                    1
    J tasked:                  Yes
    K tasked:                  Yes
[...]
	system time =       0.02 seconds =       0.00 minutes
	total time  =          2 seconds =       0.03 minutes
Total time:
	user time   =     101.69 seconds =       1.69 minutes
	system time =       1.27 seconds =       0.02 minutes
	total time  =         53 seconds =       0.88 minutes

*** tstart() called on d-snes-l-dc-01
*** at Wed Oct 31 09:55:59 2018


         ------------------------------------------------------------
                                   SCF GRAD                          
                          Rob Parrish, Justin Turney,                
                       Andy Simmonett, and Alex Sokolov              
         ------------------------------------------------------------

  ==> Geometry <==

    Molecular point group: c1
    Full point group: C1

    Geometry (in Angstrom), charge = 0, multiplicity = 1:

       Center              X                  Y                   Z               Mass       
    ------------   -----------------  -----------------  -----------------  -----------------
         C            0.000015842253    -0.000001194456    -0.000012070288    12.000000000000
         H           -0.675137157747     0.852336805544    -0.085400070288     1.007825032070
         H           -0.393717157747    -0.835313194456    -0.580362070288     1.007825032070
         H            0.084775842253    -0.293021194456     1.047180929712     1.007825032070
         H            0.983889842253     0.276011805544    -0.381275070288     1.007825032070

  Nuclear repulsion =   13.426927941629069

  ==> Basis Set <==

  Basis Set: 6-311++G(D,P)
    Blend: 6-311++G(D,P)
    Number of shells: 30
    Number of basis function: 50
    Number of Cartesian functions: 51
    Spherical Harmonics?: true
    Max angular momentum: 2

  ==> DFJKGrad: Density-Fitted SCF Gradients <==

    Gradient:                    1
    J tasked:                  Yes
    K tasked:                  Yes
    wK tasked:                 Yes
    Omega:               2.000E-01
    OpenMP threads:              2
    Integrals threads:           2
    Memory (MB):              1430
    Schwarz Cutoff:          0E+00
    Fitting Condition:       1E-12

   => Auxiliary Basis Set <=

  Basis Set: (6-311++G(D,P) AUX)
    Blend: AUG-CC-PVTZ-JKFIT
    Number of shells: 86
    Number of basis function: 288
    Number of Cartesian functions: 351
    Spherical Harmonics?: true
    Max angular momentum: 4

  ==> DFT Potential <==

   => Composite Functional: WB97X-D <= 

    wB97X-D Hyb-GGA Exchange-Correlation Functional

    J.-D. Chai and M. Head-Gordon, Phys. Chem. Chem. Phys. 10, 6615 (2008)

    Deriv               =              1
    GGA                 =           TRUE
    Meta                =          FALSE

    Exchange Hybrid     =           TRUE
    MP2 Hybrid          =          FALSE

   => Exchange-Correlation Functionals <=

    1.0000   wB97D range-separated functional

   => Exact (HF) Exchange <=

    0.7780            HF,LR [omega = 0.2000]
    0.2220               HF 

   => Molecular Quadrature <=

    Radial Scheme       =       TREUTLER
    Pruning Scheme      =           FLAT
    Nuclear Scheme      =       TREUTLER

    BS radius alpha     =              1
    Pruning alpha       =              1
    Radial Points       =             75
    Spherical Points    =            302
    Total Points        =         113250
    Total Blocks        =            920
    Max Points          =            256
    Max Functions       =             50


  -Total Gradient:
     Atom            X                  Y                   Z
    ------   -----------------  -----------------  -----------------
       1        0.000018806306     0.000029387092    -0.000006544317
       2       -0.000022925594    -0.000001080612     0.000001536116
       3       -0.000061857172    -0.000023255200     0.000016155792
       4        0.000021889947     0.000014188038     0.000041793622
       5        0.000012714245     0.000013890763     0.000007087015


*** tstop() called on d-snes-l-dc-01 at Wed Oct 31 09:56:00 2018
Module time:
	user time   =       1.25 seconds =       0.02 minutes
	system time =       0.03 seconds =       0.00 minutes
	total time  =          1 seconds =       0.02 minutes
Total time:
	user time   =     102.94 seconds =       1.72 minutes
	system time =       1.30 seconds =       0.02 minutes
	total time  =         54 seconds =       0.90 minutes

-------------------------------------------------------------

  Computing second-derivative from gradients using projected, 
  symmetry-adapted, cartesian coordinates (fd_freq_1).

  19 gradients passed in, including the reference geometry.
  Generating complete list of displacements from unique ones.


-------------------------------------------------------------


  ==> Harmonic Vibrational Analysis <==

  non-mass-weighted Hessian:       Symmetric? True   Hermitian? True   Lin Dep Dim?  6 (0)
  projection of translations (True) and rotations (True) removed 6 degrees of freedom (6)
  total projector:                 Symmetric? True   Hermitian? True   Lin Dep Dim?  6 (6)
  mass-weighted Hessian:           Symmetric? True   Hermitian? True   Lin Dep Dim?  6 (0)
  pre-proj  low-frequency mode:    0.0000i [cm^-1]
  pre-proj  low-frequency mode:    0.0000i [cm^-1]
  pre-proj  low-frequency mode:    0.0000i [cm^-1]
  pre-proj  low-frequency mode:    0.0000  [cm^-1]
  pre-proj  low-frequency mode:    0.0000  [cm^-1]
  pre-proj  low-frequency mode:    0.0001  [cm^-1]
  pre-proj  all modes:['0.0000i' '0.0000i' '0.0000i' '0.0000' '0.0000' '0.0001' '1282.8180'
 '1356.4413' '1381.5971' '1549.1438' '1589.8383' '3026.7793' '3148.5180'
 '3159.4569' '3169.0735']
  projected mass-weighted Hessian: Symmetric? True   Hermitian? True   Lin Dep Dim?  6 (6)
  post-proj low-frequency mode:    0.0000i [cm^-1] (TR)
  post-proj low-frequency mode:    0.0000i [cm^-1] (TR)
  post-proj low-frequency mode:    0.0000  [cm^-1] (TR)
  post-proj low-frequency mode:    0.0000  [cm^-1] (TR)
  post-proj low-frequency mode:    0.0000  [cm^-1] (TR)
  post-proj low-frequency mode:    0.0000  [cm^-1] (TR)
  post-proj  all modes:['0.0000i' '0.0000i' '0.0000' '0.0000' '0.0000' '0.0000' '1282.8180'
 '1356.4413' '1381.5971' '1549.1438' '1589.8383' '3026.7793' '3148.5180'
 '3159.4569' '3169.0735']

  Vibration                       7                   8                   9           
  Freq [cm^-1]                1282.8180           1356.4413           1381.5971       
  Irrep                           A                   A                   A           
  Reduced mass [u]              1.1740              1.1797              1.1685        
  Force const [mDyne/A]         1.1383              1.2789              1.3141        
  Turning point v=0 [a0]        0.2827              0.2743              0.2731        
  RMS dev v=0 [a0 u^1/2]        0.2166              0.2107              0.2087        
  Char temp [K]               1845.6867           1951.6140           1987.8075       
  ----------------------------------------------------------------------------------
      1   C               -0.09 -0.06 -0.06    0.07 -0.10 -0.00    0.05  0.04 -0.10   
      2   H                0.39  0.36  0.36    0.06 -0.06  0.07   -0.15 -0.07  0.44   
      3   H                0.23 -0.21 -0.04   -0.47  0.28 -0.14   -0.25 -0.30  0.59   
      4   H                0.34  0.40  0.05   -0.33  0.45  0.18   -0.34 -0.16 -0.09   
      5   H                0.05  0.18  0.40   -0.14  0.54 -0.05    0.16  0.07  0.29   

  Vibration                       10                  11                  12          
  Freq [cm^-1]                1549.1438           1589.8383           3026.7793       
  Irrep                           A                   A                   A           
  Reduced mass [u]              1.0095              1.0188              1.0084        
  Force const [mDyne/A]         1.4274              1.5173              5.4430        
  Turning point v=0 [a0]        0.2775              0.2726              0.1986        
  RMS dev v=0 [a0 u^1/2]        0.1971              0.1946              0.1410        
  Char temp [K]               2228.8696           2287.4198           4354.8549       
  ----------------------------------------------------------------------------------
      1   C               -0.01 -0.00 -0.01   -0.01 -0.01  0.03    0.00  0.01 -0.00   
      2   H               -0.13 -0.14 -0.40    0.42  0.30 -0.35   -0.30  0.37 -0.04   
      3   H               -0.44  0.15  0.07    0.00 -0.20  0.28   -0.20 -0.41 -0.29   
      4   H                0.51 -0.10 -0.08   -0.06 -0.43 -0.09    0.04 -0.14  0.50   
      5   H                0.16  0.12  0.51   -0.21  0.49 -0.14    0.41  0.11 -0.16   

  Vibration                       13                  14                  15          
  Freq [cm^-1]                3148.5180           3159.4569           3169.0735       
  Irrep                           A                   A                   A           
  Reduced mass [u]              1.1004              1.1028              1.0990        
  Force const [mDyne/A]         6.4273              6.4861              6.5031        
  Turning point v=0 [a0]        0.1864              0.1859              0.1859        
  RMS dev v=0 [a0 u^1/2]        0.1383              0.1380              0.1378        
  Char temp [K]               4530.0095           4545.7481           4559.5842       
  ----------------------------------------------------------------------------------
      1   C                0.02 -0.08  0.03   -0.03 -0.04 -0.08   -0.08 -0.01  0.03   
      2   H               -0.49  0.60 -0.05   -0.03  0.04 -0.02    0.23 -0.32  0.04   
      3   H                0.13  0.25  0.20    0.27  0.57  0.39    0.03  0.10  0.08   
      4   H               -0.04  0.12 -0.47    0.05 -0.19  0.62   -0.04  0.07 -0.24   
      5   H                0.16  0.03 -0.05    0.09  0.02 -0.05    0.78  0.22 -0.30   

  ==> Thermochemistry Components <==

  Entropy, S
    Electronic S            0.000 [cal/(mol K)]        0.000 [J/(mol K)]       0.00000000 [mEh/K] (multiplicity = 1)
    Translational S        34.261 [cal/(mol K)]      143.349 [J/(mol K)]       0.05459886 [mEh/K] (mol. weight = 16.0313 [u], P = 101325.00 [Pa])
    Rotational S           15.061 [cal/(mol K)]       63.017 [J/(mol K)]       0.02400200 [mEh/K] (symmetry no. = 1)
    Vibrational S           0.088 [cal/(mol K)]        0.368 [J/(mol K)]       0.00014010 [mEh/K]
  Total S                  49.411 [cal/(mol K)]      206.734 [J/(mol K)]       0.07874097 [mEh/K]
  Correction S              0.000 [cal/(mol K)]        0.000 [J/(mol K)]       0.00000000 [mEh/K]

  Constant volume heat capacity, Cv
    Electronic Cv           0.000 [cal/(mol K)]        0.000 [J/(mol K)]       0.00000000 [mEh/K]
    Translational Cv        2.981 [cal/(mol K)]       12.472 [J/(mol K)]       0.00475022 [mEh/K]
    Rotational Cv           2.981 [cal/(mol K)]       12.472 [J/(mol K)]       0.00475022 [mEh/K]
    Vibrational Cv          0.510 [cal/(mol K)]        2.134 [J/(mol K)]       0.00081275 [mEh/K]
  Total Cv                  6.472 [cal/(mol K)]       27.077 [J/(mol K)]       0.01031319 [mEh/K]
  Correction Cv             0.000 [cal/(mol K)]        0.000 [J/(mol K)]       0.00000000 [mEh/K]

  Constant pressure heat capacity, Cp
    Electronic Cp           0.000 [cal/(mol K)]        0.000 [J/(mol K)]       0.00000000 [mEh/K]
    Translational Cp        4.968 [cal/(mol K)]       20.786 [J/(mol K)]       0.00791704 [mEh/K]
    Rotational Cp           2.981 [cal/(mol K)]       12.472 [J/(mol K)]       0.00475022 [mEh/K]
    Vibrational Cp          0.510 [cal/(mol K)]        2.134 [J/(mol K)]       0.00081275 [mEh/K]
  Total Cp                  8.459 [cal/(mol K)]       35.392 [J/(mol K)]       0.01348001 [mEh/K]
  Correction Cp             0.000 [cal/(mol K)]        0.000 [J/(mol K)]       0.00000000 [mEh/K]

  ==> Thermochemistry Energy Analysis <==

  Raw electronic energy, E0
  Total E0, Electronic energy at well bottom at 0 [K]                  -40.51556449 [Eh]

  Zero-point energy, ZPE_vib = Sum_i nu_i / 2
    Electronic ZPE          0.000 [kcal/mol]        0.000 [kJ/mol]       0.00000000 [Eh]
    Translational ZPE       0.000 [kcal/mol]        0.000 [kJ/mol]       0.00000000 [Eh]
    Rotational ZPE          0.000 [kcal/mol]        0.000 [kJ/mol]       0.00000000 [Eh]
    Vibrational ZPE        28.111 [kcal/mol]      117.615 [kJ/mol]       0.04479712 [Eh]        9831.830 [cm^-1]
  Correction ZPE           28.111 [kcal/mol]      117.615 [kJ/mol]       0.04479712 [Eh]        9831.830 [cm^-1]
  Total ZPE, Electronic energy at 0 [K]                                -40.47076737 [Eh]

  Thermal Energy, E (includes ZPE)
    Electronic E            0.000 [kcal/mol]        0.000 [kJ/mol]       0.00000000 [Eh]
    Translational E         0.889 [kcal/mol]        3.718 [kJ/mol]       0.00141628 [Eh]
    Rotational E            0.889 [kcal/mol]        3.718 [kJ/mol]       0.00141628 [Eh]
    Vibrational E          28.133 [kcal/mol]      117.710 [kJ/mol]       0.04483342 [Eh]
  Correction E             29.911 [kcal/mol]      125.147 [kJ/mol]       0.04766598 [Eh]
  Total E, Electronic energy at  298.15 [K]                            -40.46789852 [Eh]

  Enthalpy, H_trans = E_trans + k_B * T
    Electronic H            0.000 [kcal/mol]        0.000 [kJ/mol]       0.00000000 [Eh]
    Translational H         1.481 [kcal/mol]        6.197 [kJ/mol]       0.00236046 [Eh]
    Rotational H            0.889 [kcal/mol]        3.718 [kJ/mol]       0.00141628 [Eh]
    Vibrational H          28.133 [kcal/mol]      117.710 [kJ/mol]       0.04483342 [Eh]
  Correction H             30.503 [kcal/mol]      127.626 [kJ/mol]       0.04861016 [Eh]
  Total H, Enthalpy at  298.15 [K]                                     -40.46695433 [Eh]

  Gibbs free energy, G = H - T * S
    Electronic G            0.000 [kcal/mol]        0.000 [kJ/mol]       0.00000000 [Eh]
    Translational G        -8.734 [kcal/mol]      -36.542 [kJ/mol]      -0.01391819 [Eh]
    Rotational G           -3.602 [kcal/mol]      -15.070 [kJ/mol]      -0.00573992 [Eh]
    Vibrational G          28.107 [kcal/mol]      117.600 [kJ/mol]       0.04479165 [Eh]
  Correction G             15.772 [kcal/mol]       65.988 [kJ/mol]       0.02513354 [Eh]
  Total G, Free enthalpy at  298.15 [K]                                -40.49043095 [Eh]
  ## Hessian (Symmetry 0) ##
  Irrep: 1 Size: 15 x 15

                 1                   2                   3                   4                   5

    1     0.54968710898614    -0.00009707654013     0.00009415851251    -0.15119446604137     0.13482374942983
    2    -0.00009707654013     0.54988929877100    -0.00000750926685     0.13094946553140    -0.21355822081060
    3     0.00009415851251    -0.00000750926685     0.54994727052172    -0.00790846579674     0.01862024032183
    4    -0.15119446604137     0.13094946553140    -0.00790846579674     0.16153933415154    -0.14568333536071
    5     0.13482374942983    -0.21355822081060     0.01862024032183    -0.14568333536071     0.22847439183710
    6    -0.00923416139781     0.01892446023843    -0.04854710023403     0.01099265620606    -0.02102523042556
    7    -0.08141943454510    -0.07486189947101    -0.05374763640692     0.00891794759845     0.01575019105935
    8    -0.08075440211416    -0.20704118946368    -0.11649173793284    -0.00822160899880    -0.01520693280399
    9    -0.05676512895655    -0.11421070283853    -0.12515088141855     0.00206227888507     0.00461778288291
   10    -0.04763008703217     0.00627236636306    -0.02115236029889    -0.00122604565151     0.00371030388158
   11     0.00994144726441    -0.06297810927110     0.06941510509946    -0.00159797173605    -0.00799976934449
   12    -0.02178326550539     0.07048846933205    -0.29619198680538     0.00008788153301    -0.00029321451584
   13    -0.26944312136749    -0.06226285588332     0.08271430399005    -0.01803677005711    -0.00860090901004
   14    -0.06391371803994    -0.06631177922561     0.02846390177840     0.02455345056416     0.00829053112198
   15     0.08768839734724     0.02480528253489    -0.08005730206376    -0.00523435082739    -0.00191957826334

                 6                   7                   8                   9                  10

    1    -0.00923416139781    -0.08141943454510    -0.08075440211416    -0.05676512895655    -0.04763008703217
    2     0.01892446023843    -0.07486189947101    -0.20704118946368    -0.11421070283853     0.00627236636306
    3    -0.04854710023403    -0.05374763640692    -0.11649173793284    -0.12515088141855    -0.02115236029889
    4     0.01099265620606     0.00891794759845    -0.00822160899880     0.00206227888507    -0.00122604565151
    5    -0.02102523042556     0.01575019105935    -0.01520693280399     0.00461778288291     0.00371030388158
    6     0.04757293963859     0.01071803708922    -0.01124075318908     0.00224628383014    -0.02124211711194
    7     0.01071803708922     0.08425331637922     0.08390757404346     0.05865156827125    -0.00120428616143
    8    -0.01124075318908     0.08390757404346     0.21783326618062     0.12248120315584     0.00551608419555
    9     0.00224628383014     0.05865156827125     0.12248120315584     0.12975016688756    -0.00957820469649
   10    -0.02124211711194    -0.00120428616143     0.00551608419555    -0.00957820469649     0.04673809641238
   11     0.02523278094538    -0.00303843269785     0.00854062522161    -0.02352189503820    -0.00790607782288
   12    -0.00167900238371     0.00133265415846     0.00731564648729    -0.01440040977890     0.02309693671919
   13     0.00876558521447    -0.01054754327115    -0.00044764712605     0.00562948649673     0.00332232243273
   14    -0.01189125756917    -0.02175743293394    -0.00412576913456     0.01063361183798    -0.00759267661731
   15     0.00040687914902    -0.01695462311201    -0.00206435852121     0.00755484047975     0.02887574538814

                11                  12                  13                  14                  15

    1     0.00994144726441    -0.02178326550539    -0.26944312136749    -0.06391371803994     0.08768839734724
    2    -0.06297810927110     0.07048846933205    -0.06226285588332    -0.06631177922561     0.02480528253489
    3     0.06941510509946    -0.29619198680538     0.08271430399005     0.02846390177840    -0.08005730206376
    4    -0.00159797173605     0.00008788153301    -0.01803677005711     0.02455345056416    -0.00523435082739
    5    -0.00799976934449    -0.00029321451584    -0.00860090901004     0.00829053112198    -0.00191957826334
    6     0.02523278094538    -0.00167900238371     0.00876558521447    -0.01189125756917     0.00040687914902
    7    -0.00303843269785     0.00133265415846    -0.01054754327115    -0.02175743293394    -0.01695462311201
    8     0.00854062522161     0.00731564648729    -0.00044764712605    -0.00412576913456    -0.00206435852121
    9    -0.02352189503820    -0.01440040977890     0.00562948649673     0.01063361183798     0.00755484047975
   10    -0.00790607782288     0.02309693671919     0.00332232243273    -0.00759267661731     0.02887574538814
   11     0.06590726745714    -0.07827993891667     0.00260103499238    -0.00347001406315     0.00715394791003
   12    -0.07827993891667     0.32208453868607    -0.00273420690526     0.00076903761316    -0.00981313971807
   13     0.00260103499238    -0.00273420690526     0.29470511226302     0.06871037702703    -0.09437516879598
   14    -0.00347001406315     0.00076903761316     0.06871037702703     0.06561703130134    -0.02797529366037
   15     0.00715394791003    -0.00981313971807    -0.09437516879598    -0.02797529366037     0.08190872215307




    Psi4 stopped on: Wednesday, 31 October 2018 09:56AM
    Psi4 wall time for execution: 0:00:53.99

*** Psi4 exiting successfully. Buy a developer a beer!
