
Host: d-chem-l-dc-04

Timers On : Wed Oct  3 13:56:42 2018
Timers Off: Wed Oct  3 13:56:44 2018

Wall Time:        1.81 seconds


-----------------------------------------------------------

***********************************************************
