
Host: d-snes-l-dc-01

Timers On : Mon Apr  1 15:02:19 2019
Timers Off: Mon Apr  1 15:02:20 2019

Wall Time:        0.75 seconds

                                                       Time (seconds)
Module                                       User      System        Wall        Calls

--------------------------------------------------------------------------------------

**************************************************************************************
