5    
Iteration 5 Energy -40.51556432
C       -0.0008301902    0.0016435787   -0.0004311102
H       -0.6759833209    0.8539822024   -0.0858192845
H       -0.3945625411   -0.8336683699   -0.5807811640
H        0.0839297904   -0.2913759260    1.0467616427
H        0.9830435969    0.2776571586   -0.3816938448
