
Host: d-snes-l-dc-01

Timers On : Fri Sep 21 12:03:46 2018
Timers Off: Fri Sep 21 12:06:37 2018

Wall Time:      170.64 seconds


-----------------------------------------------------------

***********************************************************

Host: d-snes-l-dc-01

Timers On : Fri Sep 21 17:08:05 2018
Timers Off: Fri Sep 21 17:08:05 2018

Wall Time:        0.56 seconds


-----------------------------------------------------------

***********************************************************

Host: d-snes-l-dc-01

Timers On : Fri Sep 21 17:10:29 2018
Timers Off: Fri Sep 21 17:10:30 2018

Wall Time:        0.57 seconds


-----------------------------------------------------------

***********************************************************

Host: d-snes-l-dc-01

Timers On : Fri Sep 21 17:12:10 2018
Timers Off: Fri Sep 21 17:12:11 2018

Wall Time:        0.57 seconds


-----------------------------------------------------------

***********************************************************

Host: d-snes-l-dc-01

Timers On : Fri Sep 21 17:15:32 2018
Timers Off: Fri Sep 21 17:15:32 2018

Wall Time:        0.56 seconds


-----------------------------------------------------------

***********************************************************

Host: d-snes-l-dc-01

Timers On : Fri Sep 21 17:16:25 2018
Timers Off: Fri Sep 21 17:16:26 2018

Wall Time:        0.57 seconds


-----------------------------------------------------------

***********************************************************

Host: d-snes-l-dc-01

Timers On : Fri Sep 21 17:17:41 2018
Timers Off: Fri Sep 21 17:17:41 2018

Wall Time:        0.57 seconds


-----------------------------------------------------------

***********************************************************
