
    -----------------------------------------------------------------------
          Psi4: An Open-Source Ab Initio Electronic Structure Package
                               Psi4 1.2.1 release

                         Git: Rev {HEAD} 406f4de 


    R. M. Parrish, L. A. Burns, D. G. A. Smith, A. C. Simmonett,
    A. E. DePrince III, E. G. Hohenstein, U. Bozkaya, A. Yu. Sokolov,
    R. Di Remigio, R. M. Richard, J. F. Gonthier, A. M. James,
    H. R. McAlexander, A. Kumar, M. Saitow, X. Wang, B. P. Pritchard,
    P. Verma, H. F. Schaefer III, K. Patkowski, R. A. King, E. F. Valeev,
    F. A. Evangelista, J. M. Turney, T. D. Crawford, and C. D. Sherrill,
    J. Chem. Theory Comput. 13(7) pp 3185--3197 (2017).
    (doi: 10.1021/acs.jctc.7b00174)


                         Additional Contributions by
    P. Kraus, H. Kruse, M. H. Lechner, M. C. Schieber, and R. A. Shaw

    -----------------------------------------------------------------------


    Psi4 started on: Monday, 24 September 2018 10:16AM

    Process ID: 38101
    Host:       d-snes-l-dc-01
    PSIDATADIR: /home/b6056633/anaconda3/share/psi4
    Memory:     500.0 MiB
    Threads:    2
    
  ==> Input File <==

--------------------------------------------------------------------------
molecule ethane {
 0 1 
C          -0.7635531     0.0237588    -0.0242082
C           0.7611939    -0.0165439     0.0264806
H          -1.1966484    -0.0750576     0.9747063
H          -1.1217464     0.9657302    -0.4479045
H          -1.1616027    -0.7879653    -0.6388294
H           1.1591721     0.7951301     0.6412022
H           1.1943486     0.0824186    -0.9723935
H           1.1194166    -0.9585433     0.4500872
}

set basis 6-311++G(d,p)
gradient('wb97x-d')--------------------------------------------------------------------------
gradient() will perform analytic gradient computation.

*** tstart() called on d-snes-l-dc-01
*** at Mon Sep 24 10:16:02 2018

   => Loading Basis Set <=

    Name: 6-311++G(D,P)
    Role: ORBITAL
    Keyword: BASIS
    atoms 1-2 entry C          line   119 file /home/b6056633/anaconda3/share/psi4/basis/6-311ppg_d_p_.gbs 
    atoms 3-8 entry H          line    42 file /home/b6056633/anaconda3/share/psi4/basis/6-311ppg_d_p_.gbs 


         ---------------------------------------------------------
                                   SCF
            by Justin Turney, Rob Parrish, Andy Simmonett
                             and Daniel Smith
                              RKS Reference
                        2 Threads,    500 MiB Core
         ---------------------------------------------------------

  ==> Geometry <==

    Molecular point group: c1
    Full point group: C1

    Geometry (in Angstrom), charge = 0, multiplicity = 1:

       Center              X                  Y                   Z               Mass       
    ------------   -----------------  -----------------  -----------------  -----------------
         C           -0.762374083625     0.020149069166    -0.025346113980    12.000000000000
         C            0.762372916375    -0.020153630834     0.025342686020    12.000000000000
         H           -1.195469383625    -0.078667330834     0.973568386020     1.007825032070
         H           -1.120567383625     0.962120469166    -0.449042413980     1.007825032070
         H           -1.160423683625    -0.791575030834    -0.639967313980     1.007825032070
         H            1.160351116375     0.791520369166     0.640064286020     1.007825032070
         H            1.195527616375     0.078808869166    -0.973531413980     1.007825032070
         H            1.120595616375    -0.962153030834     0.448949286020     1.007825032070

  Running in c1 symmetry.

  Rotational constants: A =      2.68657  B =      0.66773  C =      0.66771 [cm^-1]
  Rotational constants: A =  80541.44145  B =  20018.12237  C =  20017.35521 [MHz]
  Nuclear repulsion =   42.230214131838451

  Charge       = 0
  Multiplicity = 1
  Electrons    = 18
  Nalpha       = 9
  Nbeta        = 9

  ==> Algorithm <==

  SCF Algorithm Type is DF.
  DIIS enabled.
  MOM disabled.
  Fractional occupation disabled.
  Guess Type is SAD.
  Energy threshold   = 1.00e-08
  Density threshold  = 1.00e-08
  Integral threshold = 0.00e+00

  ==> Primary Basis <==

  Basis Set: 6-311++G(D,P)
    Blend: 6-311++G(D,P)
    Number of shells: 50
    Number of basis function: 86
    Number of Cartesian functions: 88
    Spherical Harmonics?: true
    Max angular momentum: 2

  ==> DFT Potential <==

   => Composite Functional: WB97X-D <= 

    wB97X-D Hyb-GGA Exchange-Correlation Functional

    J.-D. Chai and M. Head-Gordon, Phys. Chem. Chem. Phys. 10, 6615 (2008)

    Deriv               =              1
    GGA                 =           TRUE
    Meta                =          FALSE

    Exchange Hybrid     =           TRUE
    MP2 Hybrid          =          FALSE

   => Exchange-Correlation Functionals <=

    1.0000   wB97D range-separated functional

   => Exact (HF) Exchange <=

    0.7780            HF,LR [omega = 0.2000]
    0.2220               HF 

   => Molecular Quadrature <=

    Radial Scheme       =       TREUTLER
    Pruning Scheme      =           FLAT
    Nuclear Scheme      =       TREUTLER

    BS radius alpha     =              1
    Pruning alpha       =              1
    Radial Points       =             75
    Spherical Points    =            302
    Total Points        =         181200
    Total Blocks        =           1422
    Max Points          =            256
    Max Functions       =             86

   => -CHG: Empirical Dispersion <=

    Chai and Head-Gordon Dispersion Correction
    Chai, J.-D.; Head-Gordon, M. (2010), J. Chem. Phys., 132: 6615-6620

        S6 =   1.000000E+00

   => Loading Basis Set <=

    Name: (6-311++G(D,P) AUX)
    Role: JKFIT
    Keyword: DF_BASIS_SCF
    atoms 1-2 entry C          line   162 file /home/b6056633/anaconda3/share/psi4/basis/aug-cc-pvtz-jkfit.gbs 
    atoms 3-8 entry H          line    70 file /home/b6056633/anaconda3/share/psi4/basis/aug-cc-pvtz-jkfit.gbs 

  ==> Pre-Iterations <==

   -------------------------------------------------------
    Irrep   Nso     Nmo     Nalpha   Nbeta   Ndocc  Nsocc
   -------------------------------------------------------
     A         86      86       0       0       0       0
   -------------------------------------------------------
    Total      86      86       9       9       9       0
   -------------------------------------------------------

  ==> Integral Setup <==

  ==> DiskDFJK: Density-Fitted J/K Matrices <==

    J tasked:                  Yes
    K tasked:                  Yes
    wK tasked:                 Yes
    Omega:               2.000E-01
    OpenMP threads:              2
    Integrals threads:           2
    Memory (MB):               375
    Algorithm:                Core
    Integral Cache:           NONE
    Schwarz Cutoff:          1E-12
    Fitting Condition:       1E-12

   => Auxiliary Basis Set <=

  Basis Set: (6-311++G(D,P) AUX)
    Blend: AUG-CC-PVTZ-JKFIT
    Number of shells: 144
    Number of basis function: 484
    Number of Cartesian functions: 592
    Spherical Harmonics?: true
    Max angular momentum: 4

  Minimum eigenvalue in the overlap matrix is 1.4841914097E-04.
  Using Symmetric Orthogonalization.

  SCF Guess: Superposition of Atomic Densities via on-the-fly atomic UHF.

  ==> Iterations <==

                           Total Energy        Delta E     RMS |[F,P]|

   @DF-RKS iter   0:   -80.17611746978152   -8.01761e+01   3.94511e-02 
   @DF-RKS iter   1:   -79.79811780896567    3.78000e-01   3.34760e-03 
   @DF-RKS iter   2:   -79.81392067773325   -1.58029e-02   2.34205e-03 DIIS
   @DF-RKS iter   3:   -79.82495325377035   -1.10326e-02   2.68947e-04 DIIS
   @DF-RKS iter   4:   -79.82517874922777   -2.25495e-04   4.25872e-05 DIIS
   @DF-RKS iter   5:   -79.82518615788508   -7.40866e-06   7.27002e-06 DIIS
   @DF-RKS iter   6:   -79.82518641265443   -2.54769e-07   8.32898e-07 DIIS
   @DF-RKS iter   7:   -79.82518641796396   -5.30953e-09   1.28311e-07 DIIS
   @DF-RKS iter   8:   -79.82518641807890   -1.14937e-10   1.97083e-08 DIIS
   @DF-RKS iter   9:   -79.82518641808163   -2.72848e-12   3.69586e-09 DIIS

  ==> Post-Iterations <==

    Orbital Energies [Eh]
    ---------------------

    Doubly Occupied:                                                      

       1A    -10.268981     2A    -10.268755     3A     -0.852307  
       4A     -0.710360     5A     -0.521673     6A     -0.521626  
       7A     -0.451307     8A     -0.424465     9A     -0.424433  

    Virtual:                                                              

      10A      0.044706    11A      0.061722    12A      0.070997  
      13A      0.071002    14A      0.102201    15A      0.102202  
      16A      0.140173    17A      0.146997    18A      0.147002  
      19A      0.174466    20A      0.178520    21A      0.194978  
      22A      0.198512    23A      0.198513    24A      0.247018  
      25A      0.247056    26A      0.279840    27A      0.279854  
      28A      0.325730    29A      0.366838    30A      0.376105  
      31A      0.510587    32A      0.510653    33A      0.531978  
      34A      0.535113    35A      0.535169    36A      0.731989  
      37A      0.732023    38A      0.733899    39A      0.745210  
      40A      0.745219    41A      0.793166    42A      0.815438  
      43A      0.928122    44A      0.982531    45A      1.043257  
      46A      1.043331    47A      1.344947    48A      1.345027  
      49A      1.551685    50A      1.558859    51A      1.631141  
      52A      1.631249    53A      1.647128    54A      1.647185  
      55A      1.655515    56A      1.787179    57A      1.787191  
      58A      1.842272    59A      1.940150    60A      1.940236  
      61A      2.184561    62A      2.211004    63A      2.220142  
      64A      2.220189    65A      2.416843    66A      2.417011  
      67A      2.522512    68A      2.568243    69A      2.568456  
      70A      2.584580    71A      2.698421    72A      2.698459  
      73A      2.728940    74A      2.728998    75A      2.761597  
      76A      2.761648    77A      2.934306    78A      2.949323  
      79A      3.313380    80A      3.905496    81A      3.905970  
      82A      3.918953    83A      3.919201    84A      4.330494  
      85A     24.048918    86A     24.139428  

    Final Occupation by Irrep:
              A 
    DOCC [     9 ]

  Energy converged.

  @DF-RKS Final Energy:   -79.82518641808163

   => Energetics <=

    Nuclear Repulsion Energy =             42.2302141318384514
    One-Electron Energy =                -189.3155576434056115
    Two-Electron Energy =                  76.0520364502613972
    DFT Exchange-Correlation Energy =      -8.7900174424339212
    Empirical Dispersion Energy =          -0.0018619143419632
    VV10 Nonlocal Energy =                  0.0000000000000000
    Total Energy =                        -79.8251864180816284



Properties will be evaluated at   0.000000,   0.000000,   0.000000 [a0]

Properties computed using the SCF density matrix

  Nuclear Dipole Moment: [e a0]
     X:     0.0000      Y:     0.0001      Z:     0.0000

  Electronic Dipole Moment: [e a0]
     X:    -0.0000      Y:    -0.0000      Z:    -0.0000

  Dipole Moment: [e a0]
     X:     0.0000      Y:     0.0000      Z:     0.0000     Total:     0.0000

  Dipole Moment: [D]
     X:     0.0000      Y:     0.0000      Z:     0.0000     Total:     0.0000


*** tstop() called on d-snes-l-dc-01 at Mon Sep 24 10:16:07 2018
Module time:
	user time   =       9.20 seconds =       0.15 minutes
	system time =       0.14 seconds =       0.00 minutes
	total time  =          5 seconds =       0.08 minutes
Total time:
	user time   =       9.20 seconds =       0.15 minutes
	system time =       0.14 seconds =       0.00 minutes
	total time  =          5 seconds =       0.08 minutes

*** tstart() called on d-snes-l-dc-01
*** at Mon Sep 24 10:16:07 2018


         ------------------------------------------------------------
                                   SCF GRAD                          
                          Rob Parrish, Justin Turney,                
                       Andy Simmonett, and Alex Sokolov              
         ------------------------------------------------------------

  ==> Geometry <==

    Molecular point group: c1
    Full point group: C1

    Geometry (in Angstrom), charge = 0, multiplicity = 1:

       Center              X                  Y                   Z               Mass       
    ------------   -----------------  -----------------  -----------------  -----------------
         C           -0.762374083625     0.020149069166    -0.025346113980    12.000000000000
         C            0.762372916375    -0.020153630834     0.025342686020    12.000000000000
         H           -1.195469383625    -0.078667330834     0.973568386020     1.007825032070
         H           -1.120567383625     0.962120469166    -0.449042413980     1.007825032070
         H           -1.160423683625    -0.791575030834    -0.639967313980     1.007825032070
         H            1.160351116375     0.791520369166     0.640064286020     1.007825032070
         H            1.195527616375     0.078808869166    -0.973531413980     1.007825032070
         H            1.120595616375    -0.962153030834     0.448949286020     1.007825032070

  Nuclear repulsion =   42.230214131838451

  ==> Basis Set <==

  Basis Set: 6-311++G(D,P)
    Blend: 6-311++G(D,P)
    Number of shells: 50
    Number of basis function: 86
    Number of Cartesian functions: 88
    Spherical Harmonics?: true
    Max angular momentum: 2

  ==> DFJKGrad: Density-Fitted SCF Gradients <==

    Gradient:                    1
    J tasked:                  Yes
    K tasked:                  Yes
    wK tasked:                 Yes
    Omega:               2.000E-01
    OpenMP threads:              2
    Integrals threads:           2
    Memory (MB):               375
    Schwarz Cutoff:          0E+00
    Fitting Condition:       1E-12

   => Auxiliary Basis Set <=

  Basis Set: (6-311++G(D,P) AUX)
    Blend: AUG-CC-PVTZ-JKFIT
    Number of shells: 144
    Number of basis function: 484
    Number of Cartesian functions: 592
    Spherical Harmonics?: true
    Max angular momentum: 4

  ==> DFT Potential <==

   => Composite Functional: WB97X-D <= 

    wB97X-D Hyb-GGA Exchange-Correlation Functional

    J.-D. Chai and M. Head-Gordon, Phys. Chem. Chem. Phys. 10, 6615 (2008)

    Deriv               =              1
    GGA                 =           TRUE
    Meta                =          FALSE

    Exchange Hybrid     =           TRUE
    MP2 Hybrid          =          FALSE

   => Exchange-Correlation Functionals <=

    1.0000   wB97D range-separated functional

   => Exact (HF) Exchange <=

    0.7780            HF,LR [omega = 0.2000]
    0.2220               HF 

   => Molecular Quadrature <=

    Radial Scheme       =       TREUTLER
    Pruning Scheme      =           FLAT
    Nuclear Scheme      =       TREUTLER

    BS radius alpha     =              1
    Pruning alpha       =              1
    Radial Points       =             75
    Spherical Points    =            302
    Total Points        =         181200
    Total Blocks        =           1422
    Max Points          =            256
    Max Functions       =             86


  -Total Gradient:
     Atom            X                  Y                   Z
    ------   -----------------  -----------------  -----------------
       1        0.000012537553     0.000034028051     0.000050796068
       2       -0.000013171446    -0.000034239227    -0.000048715228
       3        0.000019735264     0.000025119607     0.000025985856
       4       -0.000008669541     0.000014706550     0.000055932798
       5       -0.000004972964    -0.000029726977     0.000025292730
       6        0.000000223473     0.000027234781    -0.000028113910
       7       -0.000015893878    -0.000022830473    -0.000023999964
       8        0.000010020154    -0.000014177499    -0.000056900353


*** tstop() called on d-snes-l-dc-01 at Mon Sep 24 10:16:09 2018
Module time:
	user time   =       3.76 seconds =       0.06 minutes
	system time =       0.06 seconds =       0.00 minutes
	total time  =          2 seconds =       0.03 minutes
Total time:
	user time   =      12.96 seconds =       0.22 minutes
	system time =       0.20 seconds =       0.00 minutes
	total time  =          7 seconds =       0.12 minutes

    Psi4 stopped on: Monday, 24 September 2018 10:16AM
    Psi4 wall time for execution: 0:00:06.94

*** Psi4 exiting successfully. Buy a developer a beer!
