
Host: d-snes-l-dc-01

Timers On : Mon Sep 24 10:08:11 2018
Timers Off: Mon Sep 24 10:08:19 2018

Wall Time:        7.99 seconds

V: Grid                     :      0.267u      0.033s      0.170w      1 calls
JK: (A|mn)                  :      0.867u      0.000s      0.258w      1 calls
JK: (A|Q)^-1/2              :      0.250u      0.000s      0.075w      1 calls
JK: (Q|mn)                  :      0.083u      0.000s      0.027w      1 calls
JK: (A|mn)^L                :      0.367u      0.000s      0.110w      1 calls
JK: (A|Q)^-1                :      0.250u      0.000s      0.074w      1 calls
JK: (Q|mn)^L                :      0.067u      0.000s      0.023w      1 calls
JK: (A|mn)^R                :      0.417u      0.000s      0.123w      1 calls
HF: Form H                  :      0.000u      0.000s      0.001w      1 calls
HF: Form S/X                :      0.000u      0.017s      0.001w      1 calls
HF: Guess                   :      0.250u      0.000s      0.073w      1 calls
SAD Guess                   :      0.250u      0.000s      0.071w      1 calls
HF: Form G                  :     12.583u      0.217s      3.845w     11 calls
RV: Form V                  :     11.267u      0.117s      3.425w     11 calls
Properties                  :      4.018p                          17112 calls
Functional                  :      1.480p                          17112 calls
V_xc                        :      1.973p                          15686 calls
JK: D                       :      0.000u      0.000s      0.000w     11 calls
JK: USO2AO                  :      0.000u      0.000s      0.000w     11 calls
JK: JK                      :      1.217u      0.100s      0.417w     11 calls
JK: J                       :      0.033u      0.033s      0.026w     11 calls
JK: J1                      :      0.017u      0.033s      0.019w     11 calls
JK: J2                      :      0.017u      0.000s      0.007w     11 calls
JK: K                       :      0.367u      0.000s      0.119w     11 calls
JK: K1                      :      0.367u      0.000s      0.105w     11 calls
JK: K2                      :      0.000u      0.000s      0.014w     11 calls
JK: wK                      :      0.750u      0.067s      0.255w     22 calls
JK: wK1                     :      0.733u      0.067s      0.240w     44 calls
JK: wK2                     :      0.017u      0.000s      0.015w     22 calls
JK: AO2USO                  :      0.000u      0.000s      0.000w     11 calls
HF: Form F                  :      0.000u      0.000s      0.000w     11 calls
HF: DIIS                    :      0.000u      0.000s      0.009w     11 calls
DIISManager::add_entry      :      0.000u      0.000s      0.002w     10 calls
DIISManager::extrapolate    :      0.000u      0.000s      0.004w      9 calls
bMatrix setup               :      0.000u      0.000s      0.002w      9 calls
bMatrix pseudoinverse       :      0.000u      0.000s      0.001w      9 calls
New vector                  :      0.000u      0.000s      0.001w      9 calls
HF: Form C                  :      0.083u      0.017s      0.015w     11 calls
HF: Form D                  :      0.000u      0.000s      0.000w     11 calls
Grad: V T Perturb           :      0.233u      0.033s      0.076w      1 calls
Grad: S                     :      0.000u      0.000s      0.001w      1 calls
Grad: JK                    :      4.350u      0.117s      1.336w      1 calls
JKGrad: Amn                 :      0.583u      0.033s      0.187w      1 calls
JKGrad: Awmn                :      0.583u      0.033s      0.184w      1 calls
JKGrad: AB                  :      0.267u      0.000s      0.082w      1 calls
JKGrad: UV                  :      0.017u      0.017s      0.005w      1 calls
JKGrad: ABx                 :      0.117u      0.000s      0.035w      1 calls
JKGrad: Amnx                :      2.733u      0.033s      0.830w      1 calls
Grad: XC                    :      1.883u      0.000s      0.568w      1 calls
V_xc gradient               :      0.417p                           1426 calls

-----------------------------------------------------------
V: Grid                     :      0.267u      0.033s      0.170w      1 calls
JK: (A|mn)                  :      0.867u      0.000s      0.258w      1 calls
JK: (A|Q)^-1/2              :      0.250u      0.000s      0.075w      1 calls
JK: (Q|mn)                  :      0.083u      0.000s      0.027w      1 calls
JK: (A|mn)^L                :      0.367u      0.000s      0.110w      1 calls
JK: (A|Q)^-1                :      0.250u      0.000s      0.074w      1 calls
JK: (Q|mn)^L                :      0.067u      0.000s      0.023w      1 calls
JK: (A|mn)^R                :      0.417u      0.000s      0.123w      1 calls
HF: Form H                  :      0.000u      0.000s      0.001w      1 calls
HF: Form S/X                :      0.000u      0.017s      0.001w      1 calls
HF: Guess                   :      0.250u      0.000s      0.073w      1 calls
| SAD Guess                 :      0.250u      0.000s      0.071w      1 calls
HF: Form G                  :     12.583u      0.217s      3.845w     11 calls
| RV: Form V                :     11.267u      0.117s      3.425w     11 calls
| | Properties              :      3.462p                          15686 calls
| | Functional              :      1.354p                          15686 calls
| | V_xc                    :      1.973p                          15686 calls
| JK: D                     :      0.000u      0.000s      0.000w     11 calls
| JK: USO2AO                :      0.000u      0.000s      0.000w     11 calls
| JK: JK                    :      1.217u      0.100s      0.417w     11 calls
| | JK: J                   :      0.033u      0.033s      0.026w     11 calls
| | | JK: J1                :      0.017u      0.033s      0.019w     11 calls
| | | JK: J2                :      0.017u      0.000s      0.007w     11 calls
| | JK: K                   :      0.367u      0.000s      0.119w     11 calls
| | | JK: K1                :      0.367u      0.000s      0.105w     11 calls
| | | JK: K2                :      0.000u      0.000s      0.014w     11 calls
| | JK: wK                  :      0.750u      0.067s      0.255w     22 calls
| | | JK: wK1               :      0.733u      0.067s      0.240w     44 calls
| | | JK: wK2               :      0.017u      0.000s      0.015w     22 calls
| JK: AO2USO                :      0.000u      0.000s      0.000w     11 calls
HF: Form F                  :      0.000u      0.000s      0.000w     11 calls
HF: DIIS                    :      0.000u      0.000s      0.009w     11 calls
| DIISManager::add_entry    :      0.000u      0.000s      0.002w     10 calls
| DIISManager::extrapolate  :      0.000u      0.000s      0.004w      9 calls
| | bMatrix setup           :      0.000u      0.000s      0.002w      9 calls
| | bMatrix pseudoinverse   :      0.000u      0.000s      0.001w      9 calls
| | New vector              :      0.000u      0.000s      0.001w      9 calls
HF: Form C                  :      0.083u      0.017s      0.015w     11 calls
HF: Form D                  :      0.000u      0.000s      0.000w     11 calls
Grad: V T Perturb           :      0.233u      0.033s      0.076w      1 calls
Grad: S                     :      0.000u      0.000s      0.001w      1 calls
Grad: JK                    :      4.350u      0.117s      1.336w      1 calls
| JKGrad: Amn               :      0.583u      0.033s      0.187w      1 calls
| JKGrad: Awmn              :      0.583u      0.033s      0.184w      1 calls
| JKGrad: AB                :      0.267u      0.000s      0.082w      1 calls
| JKGrad: UV                :      0.017u      0.017s      0.005w      1 calls
| JKGrad: ABx               :      0.117u      0.000s      0.035w      1 calls
| JKGrad: Amnx              :      2.733u      0.033s      0.830w      1 calls
Grad: XC                    :      1.883u      0.000s      0.568w      1 calls
| Properties                :      0.556p                           1426 calls
| Functional                :      0.126p                           1426 calls
| V_xc gradient             :      0.417p                           1426 calls

***********************************************************

Host: d-snes-l-dc-01

Timers On : Mon Sep 24 10:08:19 2018
Timers Off: Mon Sep 24 10:08:27 2018

Wall Time:        7.89 seconds

V: Grid                     :      0.267u      0.017s      0.171w      1 calls
JK: (A|mn)                  :      0.750u      0.000s      0.224w      1 calls
JK: (A|Q)^-1/2              :      0.250u      0.000s      0.077w      1 calls
JK: (Q|mn)                  :      0.083u      0.000s      0.027w      1 calls
JK: (A|mn)^L                :      0.317u      0.000s      0.097w      1 calls
JK: (A|Q)^-1                :      0.250u      0.000s      0.077w      1 calls
JK: (Q|mn)^L                :      0.067u      0.000s      0.023w      1 calls
JK: (A|mn)^R                :      0.367u      0.000s      0.106w      1 calls
HF: Form H                  :      0.000u      0.000s      0.001w      1 calls
HF: Form S/X                :      0.000u      0.000s      0.001w      1 calls
HF: Guess                   :      0.250u      0.017s      0.075w      1 calls
SAD Guess                   :      0.233u      0.017s      0.073w      1 calls
HF: Form G                  :     12.700u      0.167s      3.862w     11 calls
RV: Form V                  :     11.333u      0.050s      3.444w     11 calls
Properties                  :      4.025p                          17100 calls
Functional                  :      1.487p                          17100 calls
V_xc                        :      1.988p                          15675 calls
JK: D                       :      0.017u      0.000s      0.001w     11 calls
JK: USO2AO                  :      0.000u      0.000s      0.001w     11 calls
JK: JK                      :      1.283u      0.100s      0.415w     11 calls
JK: J                       :      0.067u      0.050s      0.026w     11 calls
JK: J1                      :      0.067u      0.033s      0.019w     11 calls
JK: J2                      :      0.000u      0.017s      0.007w     11 calls
JK: K                       :      0.350u      0.000s      0.119w     11 calls
JK: K1                      :      0.300u      0.000s      0.105w     11 calls
JK: K2                      :      0.050u      0.000s      0.014w     11 calls
JK: wK                      :      0.783u      0.050s      0.254w     22 calls
JK: wK1                     :      0.700u      0.050s      0.238w     44 calls
JK: wK2                     :      0.083u      0.000s      0.016w     22 calls
JK: AO2USO                  :      0.017u      0.000s      0.000w     11 calls
HF: Form F                  :      0.000u      0.000s      0.000w     11 calls
HF: DIIS                    :      0.017u      0.000s      0.009w     11 calls
DIISManager::add_entry      :      0.000u      0.000s      0.002w     10 calls
DIISManager::extrapolate    :      0.000u      0.000s      0.004w      9 calls
bMatrix setup               :      0.000u      0.000s      0.002w      9 calls
bMatrix pseudoinverse       :      0.000u      0.000s      0.001w      9 calls
New vector                  :      0.000u      0.000s      0.001w      9 calls
HF: Form C                  :      0.033u      0.017s      0.015w     11 calls
HF: Form D                  :      0.000u      0.000s      0.000w     11 calls
Grad: V T Perturb           :      0.150u      0.050s      0.055w      1 calls
Grad: S                     :      0.000u      0.000s      0.001w      1 calls
Grad: JK                    :      4.217u      0.083s      1.289w      1 calls
JKGrad: Amn                 :      0.667u      0.017s      0.208w      1 calls
JKGrad: Awmn                :      0.550u      0.017s      0.170w      1 calls
JKGrad: AB                  :      0.233u      0.017s      0.077w      1 calls
JKGrad: UV                  :      0.017u      0.017s      0.005w      1 calls
JKGrad: ABx                 :      0.117u      0.000s      0.036w      1 calls
JKGrad: Amnx                :      2.567u      0.017s      0.779w      1 calls
Grad: XC                    :      1.850u      0.000s      0.560w      1 calls
V_xc gradient               :      0.410p                           1425 calls

-----------------------------------------------------------
V: Grid                     :      0.267u      0.017s      0.171w      1 calls
JK: (A|mn)                  :      0.750u      0.000s      0.224w      1 calls
JK: (A|Q)^-1/2              :      0.250u      0.000s      0.077w      1 calls
JK: (Q|mn)                  :      0.083u      0.000s      0.027w      1 calls
JK: (A|mn)^L                :      0.317u      0.000s      0.097w      1 calls
JK: (A|Q)^-1                :      0.250u      0.000s      0.077w      1 calls
JK: (Q|mn)^L                :      0.067u      0.000s      0.023w      1 calls
JK: (A|mn)^R                :      0.367u      0.000s      0.106w      1 calls
HF: Form H                  :      0.000u      0.000s      0.001w      1 calls
HF: Form S/X                :      0.000u      0.000s      0.001w      1 calls
HF: Guess                   :      0.250u      0.017s      0.075w      1 calls
| SAD Guess                 :      0.233u      0.017s      0.073w      1 calls
HF: Form G                  :     12.700u      0.167s      3.862w     11 calls
| RV: Form V                :     11.333u      0.050s      3.444w     11 calls
| | Properties              :      3.473p                          15675 calls
| | Functional              :      1.365p                          15675 calls
| | V_xc                    :      1.988p                          15675 calls
| JK: D                     :      0.017u      0.000s      0.001w     11 calls
| JK: USO2AO                :      0.000u      0.000s      0.001w     11 calls
| JK: JK                    :      1.283u      0.100s      0.415w     11 calls
| | JK: J                   :      0.067u      0.050s      0.026w     11 calls
| | | JK: J1                :      0.067u      0.033s      0.019w     11 calls
| | | JK: J2                :      0.000u      0.017s      0.007w     11 calls
| | JK: K                   :      0.350u      0.000s      0.119w     11 calls
| | | JK: K1                :      0.300u      0.000s      0.105w     11 calls
| | | JK: K2                :      0.050u      0.000s      0.014w     11 calls
| | JK: wK                  :      0.783u      0.050s      0.254w     22 calls
| | | JK: wK1               :      0.700u      0.050s      0.238w     44 calls
| | | JK: wK2               :      0.083u      0.000s      0.016w     22 calls
| JK: AO2USO                :      0.017u      0.000s      0.000w     11 calls
HF: Form F                  :      0.000u      0.000s      0.000w     11 calls
HF: DIIS                    :      0.017u      0.000s      0.009w     11 calls
| DIISManager::add_entry    :      0.000u      0.000s      0.002w     10 calls
| DIISManager::extrapolate  :      0.000u      0.000s      0.004w      9 calls
| | bMatrix setup           :      0.000u      0.000s      0.002w      9 calls
| | bMatrix pseudoinverse   :      0.000u      0.000s      0.001w      9 calls
| | New vector              :      0.000u      0.000s      0.001w      9 calls
HF: Form C                  :      0.033u      0.017s      0.015w     11 calls
HF: Form D                  :      0.000u      0.000s      0.000w     11 calls
Grad: V T Perturb           :      0.150u      0.050s      0.055w      1 calls
Grad: S                     :      0.000u      0.000s      0.001w      1 calls
Grad: JK                    :      4.217u      0.083s      1.289w      1 calls
| JKGrad: Amn               :      0.667u      0.017s      0.208w      1 calls
| JKGrad: Awmn              :      0.550u      0.017s      0.170w      1 calls
| JKGrad: AB                :      0.233u      0.017s      0.077w      1 calls
| JKGrad: UV                :      0.017u      0.017s      0.005w      1 calls
| JKGrad: ABx               :      0.117u      0.000s      0.036w      1 calls
| JKGrad: Amnx              :      2.567u      0.017s      0.779w      1 calls
Grad: XC                    :      1.850u      0.000s      0.560w      1 calls
| Properties                :      0.553p                           1425 calls
| Functional                :      0.122p                           1425 calls
| V_xc gradient             :      0.410p                           1425 calls

***********************************************************

Host: d-snes-l-dc-01

Timers On : Mon Sep 24 10:08:27 2018
Timers Off: Mon Sep 24 10:08:35 2018

Wall Time:        8.00 seconds

V: Grid                     :      0.267u      0.017s      0.171w      1 calls
JK: (A|mn)                  :      0.900u      0.000s      0.270w      1 calls
JK: (A|Q)^-1/2              :      0.233u      0.000s      0.075w      1 calls
JK: (Q|mn)                  :      0.100u      0.000s      0.027w      1 calls
JK: (A|mn)^L                :      0.383u      0.000s      0.116w      1 calls
JK: (A|Q)^-1                :      0.250u      0.000s      0.078w      1 calls
JK: (Q|mn)^L                :      0.083u      0.000s      0.023w      1 calls
JK: (A|mn)^R                :      0.433u      0.000s      0.130w      1 calls
HF: Form H                  :      0.000u      0.000s      0.001w      1 calls
HF: Form S/X                :      0.000u      0.000s      0.001w      1 calls
HF: Guess                   :      0.250u      0.000s      0.075w      1 calls
SAD Guess                   :      0.250u      0.000s      0.073w      1 calls
HF: Form G                  :     12.633u      0.183s      3.861w     11 calls
RV: Form V                  :     11.367u      0.117s      3.446w     11 calls
Properties                  :      4.052p                          17124 calls
Functional                  :      1.488p                          17124 calls
V_xc                        :      1.961p                          15697 calls
JK: D                       :      0.000u      0.000s      0.000w     11 calls
JK: USO2AO                  :      0.000u      0.000s      0.000w     11 calls
JK: JK                      :      1.233u      0.067s      0.413w     11 calls
JK: J                       :      0.033u      0.017s      0.027w     11 calls
JK: J1                      :      0.033u      0.017s      0.020w     11 calls
JK: J2                      :      0.000u      0.000s      0.007w     11 calls
JK: K                       :      0.383u      0.000s      0.119w     11 calls
JK: K1                      :      0.383u      0.000s      0.105w     11 calls
JK: K2                      :      0.000u      0.000s      0.013w     11 calls
JK: wK                      :      0.733u      0.050s      0.250w     22 calls
JK: wK1                     :      0.700u      0.050s      0.234w     44 calls
JK: wK2                     :      0.033u      0.000s      0.015w     22 calls
JK: AO2USO                  :      0.017u      0.000s      0.000w     11 calls
HF: Form F                  :      0.000u      0.000s      0.000w     11 calls
HF: DIIS                    :      0.033u      0.000s      0.009w     11 calls
DIISManager::add_entry      :      0.017u      0.000s      0.003w     10 calls
DIISManager::extrapolate    :      0.017u      0.000s      0.004w      9 calls
bMatrix setup               :      0.000u      0.000s      0.002w      9 calls
bMatrix pseudoinverse       :      0.000u      0.000s      0.001w      9 calls
New vector                  :      0.017u      0.000s      0.001w      9 calls
HF: Form C                  :      0.050u      0.017s      0.016w     11 calls
HF: Form D                  :      0.017u      0.000s      0.000w     11 calls
Grad: V T Perturb           :      0.167u      0.033s      0.059w      1 calls
Grad: S                     :      0.000u      0.000s      0.001w      1 calls
Grad: JK                    :      4.267u      0.083s      1.306w      1 calls
JKGrad: Amn                 :      0.667u      0.017s      0.205w      1 calls
JKGrad: Awmn                :      0.567u      0.017s      0.180w      1 calls
JKGrad: AB                  :      0.267u      0.000s      0.080w      1 calls
JKGrad: UV                  :      0.017u      0.017s      0.005w      1 calls
JKGrad: ABx                 :      0.100u      0.017s      0.035w      1 calls
JKGrad: Amnx                :      2.600u      0.017s      0.788w      1 calls
Grad: XC                    :      1.867u      0.017s      0.559w      1 calls
V_xc gradient               :      0.413p                           1427 calls

-----------------------------------------------------------
V: Grid                     :      0.267u      0.017s      0.171w      1 calls
JK: (A|mn)                  :      0.900u      0.000s      0.270w      1 calls
JK: (A|Q)^-1/2              :      0.233u      0.000s      0.075w      1 calls
JK: (Q|mn)                  :      0.100u      0.000s      0.027w      1 calls
JK: (A|mn)^L                :      0.383u      0.000s      0.116w      1 calls
JK: (A|Q)^-1                :      0.250u      0.000s      0.078w      1 calls
JK: (Q|mn)^L                :      0.083u      0.000s      0.023w      1 calls
JK: (A|mn)^R                :      0.433u      0.000s      0.130w      1 calls
HF: Form H                  :      0.000u      0.000s      0.001w      1 calls
HF: Form S/X                :      0.000u      0.000s      0.001w      1 calls
HF: Guess                   :      0.250u      0.000s      0.075w      1 calls
| SAD Guess                 :      0.250u      0.000s      0.073w      1 calls
HF: Form G                  :     12.633u      0.183s      3.861w     11 calls
| RV: Form V                :     11.367u      0.117s      3.446w     11 calls
| | Properties              :      3.506p                          15697 calls
| | Functional              :      1.364p                          15697 calls
| | V_xc                    :      1.961p                          15697 calls
| JK: D                     :      0.000u      0.000s      0.000w     11 calls
| JK: USO2AO                :      0.000u      0.000s      0.000w     11 calls
| JK: JK                    :      1.233u      0.067s      0.413w     11 calls
| | JK: J                   :      0.033u      0.017s      0.027w     11 calls
| | | JK: J1                :      0.033u      0.017s      0.020w     11 calls
| | | JK: J2                :      0.000u      0.000s      0.007w     11 calls
| | JK: K                   :      0.383u      0.000s      0.119w     11 calls
| | | JK: K1                :      0.383u      0.000s      0.105w     11 calls
| | | JK: K2                :      0.000u      0.000s      0.013w     11 calls
| | JK: wK                  :      0.733u      0.050s      0.250w     22 calls
| | | JK: wK1               :      0.700u      0.050s      0.234w     44 calls
| | | JK: wK2               :      0.033u      0.000s      0.015w     22 calls
| JK: AO2USO                :      0.017u      0.000s      0.000w     11 calls
HF: Form F                  :      0.000u      0.000s      0.000w     11 calls
HF: DIIS                    :      0.033u      0.000s      0.009w     11 calls
| DIISManager::add_entry    :      0.017u      0.000s      0.003w     10 calls
| DIISManager::extrapolate  :      0.017u      0.000s      0.004w      9 calls
| | bMatrix setup           :      0.000u      0.000s      0.002w      9 calls
| | bMatrix pseudoinverse   :      0.000u      0.000s      0.001w      9 calls
| | New vector              :      0.017u      0.000s      0.001w      9 calls
HF: Form C                  :      0.050u      0.017s      0.016w     11 calls
HF: Form D                  :      0.017u      0.000s      0.000w     11 calls
Grad: V T Perturb           :      0.167u      0.033s      0.059w      1 calls
Grad: S                     :      0.000u      0.000s      0.001w      1 calls
Grad: JK                    :      4.267u      0.083s      1.306w      1 calls
| JKGrad: Amn               :      0.667u      0.017s      0.205w      1 calls
| JKGrad: Awmn              :      0.567u      0.017s      0.180w      1 calls
| JKGrad: AB                :      0.267u      0.000s      0.080w      1 calls
| JKGrad: UV                :      0.017u      0.017s      0.005w      1 calls
| JKGrad: ABx               :      0.100u      0.017s      0.035w      1 calls
| JKGrad: Amnx              :      2.600u      0.017s      0.788w      1 calls
Grad: XC                    :      1.867u      0.017s      0.559w      1 calls
| Properties                :      0.545p                           1427 calls
| Functional                :      0.124p                           1427 calls
| V_xc gradient             :      0.413p                           1427 calls

***********************************************************

Host: d-snes-l-dc-01

Timers On : Mon Sep 24 10:08:35 2018
Timers Off: Mon Sep 24 10:08:43 2018

Wall Time:        7.49 seconds

V: Grid                     :      0.267u      0.017s      0.172w      1 calls
JK: (A|mn)                  :      0.733u      0.000s      0.223w      1 calls
JK: (A|Q)^-1/2              :      0.250u      0.000s      0.077w      1 calls
JK: (Q|mn)                  :      0.083u      0.000s      0.027w      1 calls
JK: (A|mn)^L                :      0.333u      0.000s      0.098w      1 calls
JK: (A|Q)^-1                :      0.250u      0.000s      0.077w      1 calls
JK: (Q|mn)^L                :      0.083u      0.000s      0.024w      1 calls
JK: (A|mn)^R                :      0.367u      0.000s      0.108w      1 calls
HF: Form H                  :      0.000u      0.000s      0.001w      1 calls
HF: Form S/X                :      0.000u      0.000s      0.001w      1 calls
HF: Guess                   :      0.250u      0.000s      0.074w      1 calls
SAD Guess                   :      0.233u      0.000s      0.072w      1 calls
HF: Form G                  :     11.450u      0.083s      3.450w     10 calls
RV: Form V                  :     10.267u      0.017s      3.082w     10 calls
Properties                  :      3.669p                          15499 calls
Functional                  :      1.353p                          15499 calls
V_xc                        :      1.758p                          14090 calls
JK: D                       :      0.000u      0.000s      0.000w     10 calls
JK: USO2AO                  :      0.000u      0.000s      0.000w     10 calls
JK: JK                      :      1.150u      0.067s      0.365w     10 calls
JK: J                       :      0.067u      0.017s      0.023w     10 calls
JK: J1                      :      0.050u      0.017s      0.017w     10 calls
JK: J2                      :      0.017u      0.000s      0.006w     10 calls
JK: K                       :      0.317u      0.000s      0.107w     10 calls
JK: K1                      :      0.300u      0.000s      0.094w     10 calls
JK: K2                      :      0.017u      0.000s      0.012w     10 calls
JK: wK                      :      0.700u      0.050s      0.221w     20 calls
JK: wK1                     :      0.650u      0.050s      0.207w     40 calls
JK: wK2                     :      0.050u      0.000s      0.014w     20 calls
JK: AO2USO                  :      0.000u      0.000s      0.000w     10 calls
HF: Form F                  :      0.000u      0.000s      0.000w     10 calls
HF: DIIS                    :      0.033u      0.000s      0.008w     10 calls
DIISManager::add_entry      :      0.017u      0.000s      0.002w      9 calls
DIISManager::extrapolate    :      0.017u      0.000s      0.003w      8 calls
bMatrix setup               :      0.017u      0.000s      0.001w      8 calls
bMatrix pseudoinverse       :      0.000u      0.000s      0.001w      8 calls
New vector                  :      0.000u      0.000s      0.001w      8 calls
HF: Form C                  :      0.017u      0.000s      0.014w     10 calls
HF: Form D                  :      0.000u      0.000s      0.000w     10 calls
Grad: V T Perturb           :      0.133u      0.033s      0.054w      1 calls
Grad: S                     :      0.000u      0.000s      0.001w      1 calls
Grad: JK                    :      4.150u      0.183s      1.297w      1 calls
JKGrad: Amn                 :      0.633u      0.033s      0.198w      1 calls
JKGrad: Awmn                :      0.517u      0.117s      0.195w      1 calls
JKGrad: AB                  :      0.267u      0.017s      0.086w      1 calls
JKGrad: UV                  :      0.033u      0.000s      0.005w      1 calls
JKGrad: ABx                 :      0.100u      0.000s      0.034w      1 calls
JKGrad: Amnx                :      2.550u      0.017s      0.765w      1 calls
Grad: XC                    :      1.850u      0.000s      0.558w      1 calls
V_xc gradient               :      0.411p                           1409 calls

-----------------------------------------------------------
V: Grid                     :      0.267u      0.017s      0.172w      1 calls
JK: (A|mn)                  :      0.733u      0.000s      0.223w      1 calls
JK: (A|Q)^-1/2              :      0.250u      0.000s      0.077w      1 calls
JK: (Q|mn)                  :      0.083u      0.000s      0.027w      1 calls
JK: (A|mn)^L                :      0.333u      0.000s      0.098w      1 calls
JK: (A|Q)^-1                :      0.250u      0.000s      0.077w      1 calls
JK: (Q|mn)^L                :      0.083u      0.000s      0.024w      1 calls
JK: (A|mn)^R                :      0.367u      0.000s      0.108w      1 calls
HF: Form H                  :      0.000u      0.000s      0.001w      1 calls
HF: Form S/X                :      0.000u      0.000s      0.001w      1 calls
HF: Guess                   :      0.250u      0.000s      0.074w      1 calls
| SAD Guess                 :      0.233u      0.000s      0.072w      1 calls
HF: Form G                  :     11.450u      0.083s      3.450w     10 calls
| RV: Form V                :     10.267u      0.017s      3.082w     10 calls
| | Properties              :      3.123p                          14090 calls
| | Functional              :      1.231p                          14090 calls
| | V_xc                    :      1.758p                          14090 calls
| JK: D                     :      0.000u      0.000s      0.000w     10 calls
| JK: USO2AO                :      0.000u      0.000s      0.000w     10 calls
| JK: JK                    :      1.150u      0.067s      0.365w     10 calls
| | JK: J                   :      0.067u      0.017s      0.023w     10 calls
| | | JK: J1                :      0.050u      0.017s      0.017w     10 calls
| | | JK: J2                :      0.017u      0.000s      0.006w     10 calls
| | JK: K                   :      0.317u      0.000s      0.107w     10 calls
| | | JK: K1                :      0.300u      0.000s      0.094w     10 calls
| | | JK: K2                :      0.017u      0.000s      0.012w     10 calls
| | JK: wK                  :      0.700u      0.050s      0.221w     20 calls
| | | JK: wK1               :      0.650u      0.050s      0.207w     40 calls
| | | JK: wK2               :      0.050u      0.000s      0.014w     20 calls
| JK: AO2USO                :      0.000u      0.000s      0.000w     10 calls
HF: Form F                  :      0.000u      0.000s      0.000w     10 calls
HF: DIIS                    :      0.033u      0.000s      0.008w     10 calls
| DIISManager::add_entry    :      0.017u      0.000s      0.002w      9 calls
| DIISManager::extrapolate  :      0.017u      0.000s      0.003w      8 calls
| | bMatrix setup           :      0.017u      0.000s      0.001w      8 calls
| | bMatrix pseudoinverse   :      0.000u      0.000s      0.001w      8 calls
| | New vector              :      0.000u      0.000s      0.001w      8 calls
HF: Form C                  :      0.017u      0.000s      0.014w     10 calls
HF: Form D                  :      0.000u      0.000s      0.000w     10 calls
Grad: V T Perturb           :      0.133u      0.033s      0.054w      1 calls
Grad: S                     :      0.000u      0.000s      0.001w      1 calls
Grad: JK                    :      4.150u      0.183s      1.297w      1 calls
| JKGrad: Amn               :      0.633u      0.033s      0.198w      1 calls
| JKGrad: Awmn              :      0.517u      0.117s      0.195w      1 calls
| JKGrad: AB                :      0.267u      0.017s      0.086w      1 calls
| JKGrad: UV                :      0.033u      0.000s      0.005w      1 calls
| JKGrad: ABx               :      0.100u      0.000s      0.034w      1 calls
| JKGrad: Amnx              :      2.550u      0.017s      0.765w      1 calls
Grad: XC                    :      1.850u      0.000s      0.558w      1 calls
| Properties                :      0.546p                           1409 calls
| Functional                :      0.122p                           1409 calls
| V_xc gradient             :      0.411p                           1409 calls

***********************************************************

Host: d-snes-l-dc-01

Timers On : Mon Sep 24 10:08:43 2018
Timers Off: Mon Sep 24 10:08:51 2018

Wall Time:        7.84 seconds

V: Grid                     :      0.250u      0.033s      0.171w      1 calls
JK: (A|mn)                  :      0.733u      0.000s      0.220w      1 calls
JK: (A|Q)^-1/2              :      0.267u      0.000s      0.077w      1 calls
JK: (Q|mn)                  :      0.083u      0.000s      0.027w      1 calls
JK: (A|mn)^L                :      0.317u      0.000s      0.094w      1 calls
JK: (A|Q)^-1                :      0.250u      0.000s      0.077w      1 calls
JK: (Q|mn)^L                :      0.067u      0.000s      0.022w      1 calls
JK: (A|mn)^R                :      0.367u      0.000s      0.108w      1 calls
HF: Form H                  :      0.000u      0.000s      0.001w      1 calls
HF: Form S/X                :      0.017u      0.000s      0.001w      1 calls
HF: Guess                   :      0.250u      0.000s      0.075w      1 calls
SAD Guess                   :      0.250u      0.000s      0.073w      1 calls
HF: Form G                  :     12.683u      0.167s      3.848w     11 calls
RV: Form V                  :     11.383u      0.033s      3.433w     11 calls
Properties                  :      4.045p                          17088 calls
Functional                  :      1.475p                          17088 calls
V_xc                        :      1.967p                          15664 calls
JK: D                       :      0.000u      0.000s      0.000w     11 calls
JK: USO2AO                  :      0.000u      0.000s      0.000w     11 calls
JK: JK                      :      1.267u      0.133s      0.413w     11 calls
JK: J                       :      0.083u      0.033s      0.024w     11 calls
JK: J1                      :      0.033u      0.033s      0.017w     11 calls
JK: J2                      :      0.033u      0.000s      0.007w     11 calls
JK: K                       :      0.350u      0.033s      0.121w     11 calls
JK: K1                      :      0.317u      0.000s      0.107w     11 calls
JK: K2                      :      0.033u      0.017s      0.015w     11 calls
JK: wK                      :      0.717u      0.067s      0.253w     22 calls
JK: wK1                     :      0.633u      0.067s      0.237w     44 calls
JK: wK2                     :      0.067u      0.000s      0.015w     22 calls
JK: AO2USO                  :      0.000u      0.000s      0.000w     11 calls
HF: Form F                  :      0.000u      0.000s      0.000w     11 calls
HF: DIIS                    :      0.017u      0.000s      0.009w     11 calls
DIISManager::add_entry      :      0.000u      0.000s      0.002w     10 calls
DIISManager::extrapolate    :      0.017u      0.000s      0.004w      9 calls
bMatrix setup               :      0.000u      0.000s      0.002w      9 calls
bMatrix pseudoinverse       :      0.017u      0.000s      0.001w      9 calls
New vector                  :      0.000u      0.000s      0.001w      9 calls
HF: Form C                  :      0.017u      0.017s      0.015w     11 calls
HF: Form D                  :      0.000u      0.000s      0.000w     11 calls
Grad: V T Perturb           :      0.167u      0.017s      0.055w      1 calls
Grad: S                     :      0.017u      0.000s      0.001w      1 calls
Grad: JK                    :      4.033u      0.100s      1.242w      1 calls
JKGrad: Amn                 :      0.583u      0.017s      0.178w      1 calls
JKGrad: Awmn                :      0.567u      0.017s      0.175w      1 calls
JKGrad: AB                  :      0.300u      0.000s      0.089w      1 calls
JKGrad: UV                  :      0.017u      0.000s      0.005w      1 calls
JKGrad: ABx                 :      0.100u      0.000s      0.034w      1 calls
JKGrad: Amnx                :      2.433u      0.050s      0.746w      1 calls
Grad: XC                    :      1.883u      0.000s      0.563w      1 calls
V_xc gradient               :      0.416p                           1424 calls

-----------------------------------------------------------
V: Grid                     :      0.250u      0.033s      0.171w      1 calls
JK: (A|mn)                  :      0.733u      0.000s      0.220w      1 calls
JK: (A|Q)^-1/2              :      0.267u      0.000s      0.077w      1 calls
JK: (Q|mn)                  :      0.083u      0.000s      0.027w      1 calls
JK: (A|mn)^L                :      0.317u      0.000s      0.094w      1 calls
JK: (A|Q)^-1                :      0.250u      0.000s      0.077w      1 calls
JK: (Q|mn)^L                :      0.067u      0.000s      0.022w      1 calls
JK: (A|mn)^R                :      0.367u      0.000s      0.108w      1 calls
HF: Form H                  :      0.000u      0.000s      0.001w      1 calls
HF: Form S/X                :      0.017u      0.000s      0.001w      1 calls
HF: Guess                   :      0.250u      0.000s      0.075w      1 calls
| SAD Guess                 :      0.250u      0.000s      0.073w      1 calls
HF: Form G                  :     12.683u      0.167s      3.848w     11 calls
| RV: Form V                :     11.383u      0.033s      3.433w     11 calls
| | Properties              :      3.494p                          15664 calls
| | Functional              :      1.350p                          15664 calls
| | V_xc                    :      1.967p                          15664 calls
| JK: D                     :      0.000u      0.000s      0.000w     11 calls
| JK: USO2AO                :      0.000u      0.000s      0.000w     11 calls
| JK: JK                    :      1.267u      0.133s      0.413w     11 calls
| | JK: J                   :      0.083u      0.033s      0.024w     11 calls
| | | JK: J1                :      0.033u      0.033s      0.017w     11 calls
| | | JK: J2                :      0.033u      0.000s      0.007w     11 calls
| | JK: K                   :      0.350u      0.033s      0.121w     11 calls
| | | JK: K1                :      0.317u      0.000s      0.107w     11 calls
| | | JK: K2                :      0.033u      0.017s      0.015w     11 calls
| | JK: wK                  :      0.717u      0.067s      0.253w     22 calls
| | | JK: wK1               :      0.633u      0.067s      0.237w     44 calls
| | | JK: wK2               :      0.067u      0.000s      0.015w     22 calls
| JK: AO2USO                :      0.000u      0.000s      0.000w     11 calls
HF: Form F                  :      0.000u      0.000s      0.000w     11 calls
HF: DIIS                    :      0.017u      0.000s      0.009w     11 calls
| DIISManager::add_entry    :      0.000u      0.000s      0.002w     10 calls
| DIISManager::extrapolate  :      0.017u      0.000s      0.004w      9 calls
| | bMatrix setup           :      0.000u      0.000s      0.002w      9 calls
| | bMatrix pseudoinverse   :      0.017u      0.000s      0.001w      9 calls
| | New vector              :      0.000u      0.000s      0.001w      9 calls
HF: Form C                  :      0.017u      0.017s      0.015w     11 calls
HF: Form D                  :      0.000u      0.000s      0.000w     11 calls
Grad: V T Perturb           :      0.167u      0.017s      0.055w      1 calls
Grad: S                     :      0.017u      0.000s      0.001w      1 calls
Grad: JK                    :      4.033u      0.100s      1.242w      1 calls
| JKGrad: Amn               :      0.583u      0.017s      0.178w      1 calls
| JKGrad: Awmn              :      0.567u      0.017s      0.175w      1 calls
| JKGrad: AB                :      0.300u      0.000s      0.089w      1 calls
| JKGrad: UV                :      0.017u      0.000s      0.005w      1 calls
| JKGrad: ABx               :      0.100u      0.000s      0.034w      1 calls
| JKGrad: Amnx              :      2.433u      0.050s      0.746w      1 calls
Grad: XC                    :      1.883u      0.000s      0.563w      1 calls
| Properties                :      0.551p                           1424 calls
| Functional                :      0.125p                           1424 calls
| V_xc gradient             :      0.416p                           1424 calls

***********************************************************

Host: d-snes-l-dc-01

Timers On : Mon Sep 24 10:08:51 2018
Timers Off: Mon Sep 24 10:08:59 2018

Wall Time:        7.91 seconds

V: Grid                     :      0.267u      0.017s      0.174w      1 calls
JK: (A|mn)                  :      0.733u      0.000s      0.222w      1 calls
JK: (A|Q)^-1/2              :      0.250u      0.017s      0.082w      1 calls
JK: (Q|mn)                  :      0.083u      0.000s      0.027w      1 calls
JK: (A|mn)^L                :      0.300u      0.000s      0.095w      1 calls
JK: (A|Q)^-1                :      0.250u      0.000s      0.078w      1 calls
JK: (Q|mn)^L                :      0.083u      0.000s      0.023w      1 calls
JK: (A|mn)^R                :      0.350u      0.000s      0.109w      1 calls
HF: Form H                  :      0.017u      0.017s      0.001w      1 calls
HF: Form S/X                :      0.000u      0.000s      0.001w      1 calls
HF: Guess                   :      0.233u      0.000s      0.074w      1 calls
SAD Guess                   :      0.233u      0.000s      0.071w      1 calls
HF: Form G                  :     12.717u      0.167s      3.876w     11 calls
RV: Form V                  :     11.433u      0.050s      3.458w     11 calls
Properties                  :      4.085p                          17040 calls
Functional                  :      1.479p                          17040 calls
V_xc                        :      1.983p                          15620 calls
JK: D                       :      0.000u      0.000s      0.000w     11 calls
JK: USO2AO                  :      0.000u      0.000s      0.000w     11 calls
JK: JK                      :      1.233u      0.117s      0.415w     11 calls
JK: J                       :      0.067u      0.033s      0.027w     11 calls
JK: J1                      :      0.050u      0.033s      0.019w     11 calls
JK: J2                      :      0.017u      0.000s      0.007w     11 calls
JK: K                       :      0.383u      0.017s      0.117w     11 calls
JK: K1                      :      0.333u      0.000s      0.103w     11 calls
JK: K2                      :      0.033u      0.000s      0.014w     11 calls
JK: wK                      :      0.750u      0.067s      0.255w     22 calls
JK: wK1                     :      0.700u      0.067s      0.239w     44 calls
JK: wK2                     :      0.033u      0.000s      0.016w     22 calls
JK: AO2USO                  :      0.000u      0.000s      0.000w     11 calls
HF: Form F                  :      0.000u      0.000s      0.000w     11 calls
HF: DIIS                    :      0.050u      0.000s      0.009w     11 calls
DIISManager::add_entry      :      0.017u      0.000s      0.002w     10 calls
DIISManager::extrapolate    :      0.017u      0.000s      0.004w      9 calls
bMatrix setup               :      0.017u      0.000s      0.002w      9 calls
bMatrix pseudoinverse       :      0.000u      0.000s      0.001w      9 calls
New vector                  :      0.000u      0.000s      0.001w      9 calls
HF: Form C                  :      0.067u      0.000s      0.015w     11 calls
HF: Form D                  :      0.000u      0.000s      0.000w     11 calls
Grad: V T Perturb           :      0.150u      0.033s      0.055w      1 calls
Grad: S                     :      0.000u      0.000s      0.001w      1 calls
Grad: JK                    :      4.117u      0.100s      1.265w      1 calls
JKGrad: Amn                 :      0.567u      0.033s      0.178w      1 calls
JKGrad: Awmn                :      0.567u      0.017s      0.173w      1 calls
JKGrad: AB                  :      0.267u      0.017s      0.082w      1 calls
JKGrad: UV                  :      0.000u      0.000s      0.005w      1 calls
JKGrad: ABx                 :      0.117u      0.017s      0.034w      1 calls
JKGrad: Amnx                :      2.567u      0.017s      0.779w      1 calls
Grad: XC                    :      1.900u      0.000s      0.572w      1 calls
V_xc gradient               :      0.420p                           1420 calls

-----------------------------------------------------------
V: Grid                     :      0.267u      0.017s      0.174w      1 calls
JK: (A|mn)                  :      0.733u      0.000s      0.222w      1 calls
JK: (A|Q)^-1/2              :      0.250u      0.017s      0.082w      1 calls
JK: (Q|mn)                  :      0.083u      0.000s      0.027w      1 calls
JK: (A|mn)^L                :      0.300u      0.000s      0.095w      1 calls
JK: (A|Q)^-1                :      0.250u      0.000s      0.078w      1 calls
JK: (Q|mn)^L                :      0.083u      0.000s      0.023w      1 calls
JK: (A|mn)^R                :      0.350u      0.000s      0.109w      1 calls
HF: Form H                  :      0.017u      0.017s      0.001w      1 calls
HF: Form S/X                :      0.000u      0.000s      0.001w      1 calls
HF: Guess                   :      0.233u      0.000s      0.074w      1 calls
| SAD Guess                 :      0.233u      0.000s      0.071w      1 calls
HF: Form G                  :     12.717u      0.167s      3.876w     11 calls
| RV: Form V                :     11.433u      0.050s      3.458w     11 calls
| | Properties              :      3.521p                          15620 calls
| | Functional              :      1.355p                          15620 calls
| | V_xc                    :      1.983p                          15620 calls
| JK: D                     :      0.000u      0.000s      0.000w     11 calls
| JK: USO2AO                :      0.000u      0.000s      0.000w     11 calls
| JK: JK                    :      1.233u      0.117s      0.415w     11 calls
| | JK: J                   :      0.067u      0.033s      0.027w     11 calls
| | | JK: J1                :      0.050u      0.033s      0.019w     11 calls
| | | JK: J2                :      0.017u      0.000s      0.007w     11 calls
| | JK: K                   :      0.383u      0.017s      0.117w     11 calls
| | | JK: K1                :      0.333u      0.000s      0.103w     11 calls
| | | JK: K2                :      0.033u      0.000s      0.014w     11 calls
| | JK: wK                  :      0.750u      0.067s      0.255w     22 calls
| | | JK: wK1               :      0.700u      0.067s      0.239w     44 calls
| | | JK: wK2               :      0.033u      0.000s      0.016w     22 calls
| JK: AO2USO                :      0.000u      0.000s      0.000w     11 calls
HF: Form F                  :      0.000u      0.000s      0.000w     11 calls
HF: DIIS                    :      0.050u      0.000s      0.009w     11 calls
| DIISManager::add_entry    :      0.017u      0.000s      0.002w     10 calls
| DIISManager::extrapolate  :      0.017u      0.000s      0.004w      9 calls
| | bMatrix setup           :      0.017u      0.000s      0.002w      9 calls
| | bMatrix pseudoinverse   :      0.000u      0.000s      0.001w      9 calls
| | New vector              :      0.000u      0.000s      0.001w      9 calls
HF: Form C                  :      0.067u      0.000s      0.015w     11 calls
HF: Form D                  :      0.000u      0.000s      0.000w     11 calls
Grad: V T Perturb           :      0.150u      0.033s      0.055w      1 calls
Grad: S                     :      0.000u      0.000s      0.001w      1 calls
Grad: JK                    :      4.117u      0.100s      1.265w      1 calls
| JKGrad: Amn               :      0.567u      0.033s      0.178w      1 calls
| JKGrad: Awmn              :      0.567u      0.017s      0.173w      1 calls
| JKGrad: AB                :      0.267u      0.017s      0.082w      1 calls
| JKGrad: UV                :      0.000u      0.000s      0.005w      1 calls
| JKGrad: ABx               :      0.117u      0.017s      0.034w      1 calls
| JKGrad: Amnx              :      2.567u      0.017s      0.779w      1 calls
Grad: XC                    :      1.900u      0.000s      0.572w      1 calls
| Properties                :      0.565p                           1420 calls
| Functional                :      0.125p                           1420 calls
| V_xc gradient             :      0.420p                           1420 calls

***********************************************************

Host: d-snes-l-dc-01

Timers On : Mon Sep 24 10:08:59 2018
Timers Off: Mon Sep 24 10:09:07 2018

Wall Time:        7.55 seconds

V: Grid                     :      0.250u      0.033s      0.168w      1 calls
JK: (A|mn)                  :      0.717u      0.000s      0.216w      1 calls
JK: (A|Q)^-1/2              :      0.267u      0.000s      0.081w      1 calls
JK: (Q|mn)                  :      0.100u      0.000s      0.026w      1 calls
JK: (A|mn)^L                :      0.317u      0.000s      0.094w      1 calls
JK: (A|Q)^-1                :      0.267u      0.000s      0.079w      1 calls
JK: (Q|mn)^L                :      0.067u      0.000s      0.023w      1 calls
JK: (A|mn)^R                :      0.350u      0.000s      0.107w      1 calls
HF: Form H                  :      0.000u      0.000s      0.001w      1 calls
HF: Form S/X                :      0.000u      0.000s      0.001w      1 calls
HF: Guess                   :      0.250u      0.000s      0.074w      1 calls
SAD Guess                   :      0.233u      0.000s      0.072w      1 calls
HF: Form G                  :     11.550u      0.100s      3.496w     10 calls
RV: Form V                  :     10.350u      0.067s      3.127w     10 calls
Properties                  :      3.718p                          15609 calls
Functional                  :      1.386p                          15609 calls
V_xc                        :      1.786p                          14190 calls
JK: D                       :      0.000u      0.000s      0.000w     10 calls
JK: USO2AO                  :      0.017u      0.000s      0.000w     10 calls
JK: JK                      :      1.150u      0.033s      0.367w     10 calls
JK: J                       :      0.033u      0.017s      0.024w     10 calls
JK: J1                      :      0.033u      0.017s      0.017w     10 calls
JK: J2                      :      0.000u      0.000s      0.006w     10 calls
JK: K                       :      0.350u      0.000s      0.107w     10 calls
JK: K1                      :      0.317u      0.000s      0.094w     10 calls
JK: K2                      :      0.017u      0.000s      0.013w     10 calls
JK: wK                      :      0.683u      0.017s      0.223w     20 calls
JK: wK1                     :      0.633u      0.017s      0.209w     40 calls
JK: wK2                     :      0.033u      0.000s      0.014w     20 calls
JK: AO2USO                  :      0.017u      0.000s      0.000w     10 calls
HF: Form F                  :      0.000u      0.000s      0.000w     10 calls
HF: DIIS                    :      0.033u      0.000s      0.008w     10 calls
DIISManager::add_entry      :      0.033u      0.000s      0.002w      9 calls
DIISManager::extrapolate    :      0.000u      0.000s      0.003w      8 calls
bMatrix setup               :      0.000u      0.000s      0.002w      8 calls
bMatrix pseudoinverse       :      0.000u      0.000s      0.001w      8 calls
New vector                  :      0.000u      0.000s      0.001w      8 calls
HF: Form C                  :      0.050u      0.000s      0.015w     10 calls
HF: Form D                  :      0.000u      0.000s      0.000w     10 calls
Grad: V T Perturb           :      0.150u      0.033s      0.055w      1 calls
Grad: S                     :      0.000u      0.000s      0.001w      1 calls
Grad: JK                    :      4.200u      0.117s      1.294w      1 calls
JKGrad: Amn                 :      0.617u      0.017s      0.195w      1 calls
JKGrad: Awmn                :      0.600u      0.050s      0.195w      1 calls
JKGrad: AB                  :      0.250u      0.017s      0.081w      1 calls
JKGrad: UV                  :      0.017u      0.017s      0.005w      1 calls
JKGrad: ABx                 :      0.117u      0.000s      0.034w      1 calls
JKGrad: Amnx                :      2.533u      0.017s      0.771w      1 calls
Grad: XC                    :      1.883u      0.017s      0.572w      1 calls
V_xc gradient               :      0.417p                           1419 calls

-----------------------------------------------------------
V: Grid                     :      0.250u      0.033s      0.168w      1 calls
JK: (A|mn)                  :      0.717u      0.000s      0.216w      1 calls
JK: (A|Q)^-1/2              :      0.267u      0.000s      0.081w      1 calls
JK: (Q|mn)                  :      0.100u      0.000s      0.026w      1 calls
JK: (A|mn)^L                :      0.317u      0.000s      0.094w      1 calls
JK: (A|Q)^-1                :      0.267u      0.000s      0.079w      1 calls
JK: (Q|mn)^L                :      0.067u      0.000s      0.023w      1 calls
JK: (A|mn)^R                :      0.350u      0.000s      0.107w      1 calls
HF: Form H                  :      0.000u      0.000s      0.001w      1 calls
HF: Form S/X                :      0.000u      0.000s      0.001w      1 calls
HF: Guess                   :      0.250u      0.000s      0.074w      1 calls
| SAD Guess                 :      0.233u      0.000s      0.072w      1 calls
HF: Form G                  :     11.550u      0.100s      3.496w     10 calls
| RV: Form V                :     10.350u      0.067s      3.127w     10 calls
| | Properties              :      3.158p                          14190 calls
| | Functional              :      1.257p                          14190 calls
| | V_xc                    :      1.786p                          14190 calls
| JK: D                     :      0.000u      0.000s      0.000w     10 calls
| JK: USO2AO                :      0.017u      0.000s      0.000w     10 calls
| JK: JK                    :      1.150u      0.033s      0.367w     10 calls
| | JK: J                   :      0.033u      0.017s      0.024w     10 calls
| | | JK: J1                :      0.033u      0.017s      0.017w     10 calls
| | | JK: J2                :      0.000u      0.000s      0.006w     10 calls
| | JK: K                   :      0.350u      0.000s      0.107w     10 calls
| | | JK: K1                :      0.317u      0.000s      0.094w     10 calls
| | | JK: K2                :      0.017u      0.000s      0.013w     10 calls
| | JK: wK                  :      0.683u      0.017s      0.223w     20 calls
| | | JK: wK1               :      0.633u      0.017s      0.209w     40 calls
| | | JK: wK2               :      0.033u      0.000s      0.014w     20 calls
| JK: AO2USO                :      0.017u      0.000s      0.000w     10 calls
HF: Form F                  :      0.000u      0.000s      0.000w     10 calls
HF: DIIS                    :      0.033u      0.000s      0.008w     10 calls
| DIISManager::add_entry    :      0.033u      0.000s      0.002w      9 calls
| DIISManager::extrapolate  :      0.000u      0.000s      0.003w      8 calls
| | bMatrix setup           :      0.000u      0.000s      0.002w      8 calls
| | bMatrix pseudoinverse   :      0.000u      0.000s      0.001w      8 calls
| | New vector              :      0.000u      0.000s      0.001w      8 calls
HF: Form C                  :      0.050u      0.000s      0.015w     10 calls
HF: Form D                  :      0.000u      0.000s      0.000w     10 calls
Grad: V T Perturb           :      0.150u      0.033s      0.055w      1 calls
Grad: S                     :      0.000u      0.000s      0.001w      1 calls
Grad: JK                    :      4.200u      0.117s      1.294w      1 calls
| JKGrad: Amn               :      0.617u      0.017s      0.195w      1 calls
| JKGrad: Awmn              :      0.600u      0.050s      0.195w      1 calls
| JKGrad: AB                :      0.250u      0.017s      0.081w      1 calls
| JKGrad: UV                :      0.017u      0.017s      0.005w      1 calls
| JKGrad: ABx               :      0.117u      0.000s      0.034w      1 calls
| JKGrad: Amnx              :      2.533u      0.017s      0.771w      1 calls
Grad: XC                    :      1.883u      0.017s      0.572w      1 calls
| Properties                :      0.560p                           1419 calls
| Functional                :      0.129p                           1419 calls
| V_xc gradient             :      0.417p                           1419 calls

***********************************************************

Host: d-snes-l-dc-01

Timers On : Mon Sep 24 10:09:07 2018
Timers Off: Mon Sep 24 10:09:15 2018

Wall Time:        7.60 seconds

V: Grid                     :      0.250u      0.000s      0.165w      1 calls
JK: (A|mn)                  :      0.867u      0.000s      0.259w      1 calls
JK: (A|Q)^-1/2              :      0.250u      0.000s      0.077w      1 calls
JK: (Q|mn)                  :      0.083u      0.000s      0.028w      1 calls
JK: (A|mn)^L                :      0.333u      0.000s      0.098w      1 calls
JK: (A|Q)^-1                :      0.250u      0.000s      0.075w      1 calls
JK: (Q|mn)^L                :      0.067u      0.000s      0.023w      1 calls
JK: (A|mn)^R                :      0.367u      0.000s      0.108w      1 calls
HF: Form H                  :      0.000u      0.000s      0.001w      1 calls
HF: Form S/X                :      0.000u      0.000s      0.001w      1 calls
HF: Guess                   :      0.250u      0.000s      0.075w      1 calls
SAD Guess                   :      0.233u      0.000s      0.073w      1 calls
HF: Form G                  :     11.567u      0.117s      3.503w     10 calls
RV: Form V                  :     10.333u      0.050s      3.129w     10 calls
Properties                  :      3.754p                          15587 calls
Functional                  :      1.354p                          15587 calls
V_xc                        :      1.789p                          14170 calls
JK: D                       :      0.000u      0.000s      0.000w     10 calls
JK: USO2AO                  :      0.000u      0.000s      0.000w     10 calls
JK: JK                      :      1.150u      0.067s      0.372w     10 calls
JK: J                       :      0.083u      0.000s      0.023w     10 calls
JK: J1                      :      0.033u      0.000s      0.017w     10 calls
JK: J2                      :      0.050u      0.000s      0.006w     10 calls
JK: K                       :      0.350u      0.000s      0.110w     10 calls
JK: K1                      :      0.300u      0.000s      0.098w     10 calls
JK: K2                      :      0.050u      0.000s      0.012w     10 calls
JK: wK                      :      0.683u      0.050s      0.225w     20 calls
JK: wK1                     :      0.633u      0.050s      0.211w     40 calls
JK: wK2                     :      0.050u      0.000s      0.014w     20 calls
JK: AO2USO                  :      0.000u      0.000s      0.000w     10 calls
HF: Form F                  :      0.000u      0.000s      0.000w     10 calls
HF: DIIS                    :      0.000u      0.000s      0.007w     10 calls
DIISManager::add_entry      :      0.000u      0.000s      0.002w      9 calls
DIISManager::extrapolate    :      0.000u      0.000s      0.003w      8 calls
bMatrix setup               :      0.000u      0.000s      0.001w      8 calls
bMatrix pseudoinverse       :      0.000u      0.000s      0.001w      8 calls
New vector                  :      0.000u      0.000s      0.001w      8 calls
HF: Form C                  :      0.050u      0.000s      0.014w     10 calls
HF: Form D                  :      0.000u      0.000s      0.000w     10 calls
Grad: V T Perturb           :      0.167u      0.033s      0.054w      1 calls
Grad: S                     :      0.000u      0.000s      0.001w      1 calls
Grad: JK                    :      4.217u      0.117s      1.298w      1 calls
JKGrad: Amn                 :      0.667u      0.083s      0.223w      1 calls
JKGrad: Awmn                :      0.567u      0.000s      0.168w      1 calls
JKGrad: AB                  :      0.283u      0.017s      0.091w      1 calls
JKGrad: UV                  :      0.017u      0.000s      0.005w      1 calls
JKGrad: ABx                 :      0.117u      0.000s      0.036w      1 calls
JKGrad: Amnx                :      2.533u      0.017s      0.761w      1 calls
Grad: XC                    :      1.883u      0.017s      0.574w      1 calls
V_xc gradient               :      0.420p                           1417 calls

-----------------------------------------------------------
V: Grid                     :      0.250u      0.000s      0.165w      1 calls
JK: (A|mn)                  :      0.867u      0.000s      0.259w      1 calls
JK: (A|Q)^-1/2              :      0.250u      0.000s      0.077w      1 calls
JK: (Q|mn)                  :      0.083u      0.000s      0.028w      1 calls
JK: (A|mn)^L                :      0.333u      0.000s      0.098w      1 calls
JK: (A|Q)^-1                :      0.250u      0.000s      0.075w      1 calls
JK: (Q|mn)^L                :      0.067u      0.000s      0.023w      1 calls
JK: (A|mn)^R                :      0.367u      0.000s      0.108w      1 calls
HF: Form H                  :      0.000u      0.000s      0.001w      1 calls
HF: Form S/X                :      0.000u      0.000s      0.001w      1 calls
HF: Guess                   :      0.250u      0.000s      0.075w      1 calls
| SAD Guess                 :      0.233u      0.000s      0.073w      1 calls
HF: Form G                  :     11.567u      0.117s      3.503w     10 calls
| RV: Form V                :     10.333u      0.050s      3.129w     10 calls
| | Properties              :      3.193p                          14170 calls
| | Functional              :      1.224p                          14170 calls
| | V_xc                    :      1.789p                          14170 calls
| JK: D                     :      0.000u      0.000s      0.000w     10 calls
| JK: USO2AO                :      0.000u      0.000s      0.000w     10 calls
| JK: JK                    :      1.150u      0.067s      0.372w     10 calls
| | JK: J                   :      0.083u      0.000s      0.023w     10 calls
| | | JK: J1                :      0.033u      0.000s      0.017w     10 calls
| | | JK: J2                :      0.050u      0.000s      0.006w     10 calls
| | JK: K                   :      0.350u      0.000s      0.110w     10 calls
| | | JK: K1                :      0.300u      0.000s      0.098w     10 calls
| | | JK: K2                :      0.050u      0.000s      0.012w     10 calls
| | JK: wK                  :      0.683u      0.050s      0.225w     20 calls
| | | JK: wK1               :      0.633u      0.050s      0.211w     40 calls
| | | JK: wK2               :      0.050u      0.000s      0.014w     20 calls
| JK: AO2USO                :      0.000u      0.000s      0.000w     10 calls
HF: Form F                  :      0.000u      0.000s      0.000w     10 calls
HF: DIIS                    :      0.000u      0.000s      0.007w     10 calls
| DIISManager::add_entry    :      0.000u      0.000s      0.002w      9 calls
| DIISManager::extrapolate  :      0.000u      0.000s      0.003w      8 calls
| | bMatrix setup           :      0.000u      0.000s      0.001w      8 calls
| | bMatrix pseudoinverse   :      0.000u      0.000s      0.001w      8 calls
| | New vector              :      0.000u      0.000s      0.001w      8 calls
HF: Form C                  :      0.050u      0.000s      0.014w     10 calls
HF: Form D                  :      0.000u      0.000s      0.000w     10 calls
Grad: V T Perturb           :      0.167u      0.033s      0.054w      1 calls
Grad: S                     :      0.000u      0.000s      0.001w      1 calls
Grad: JK                    :      4.217u      0.117s      1.298w      1 calls
| JKGrad: Amn               :      0.667u      0.083s      0.223w      1 calls
| JKGrad: Awmn              :      0.567u      0.000s      0.168w      1 calls
| JKGrad: AB                :      0.283u      0.017s      0.091w      1 calls
| JKGrad: UV                :      0.017u      0.000s      0.005w      1 calls
| JKGrad: ABx               :      0.117u      0.000s      0.036w      1 calls
| JKGrad: Amnx              :      2.533u      0.017s      0.761w      1 calls
Grad: XC                    :      1.883u      0.017s      0.574w      1 calls
| Properties                :      0.561p                           1417 calls
| Functional                :      0.130p                           1417 calls
| V_xc gradient             :      0.420p                           1417 calls

***********************************************************

Host: d-snes-l-dc-01

Timers On : Mon Sep 24 10:09:15 2018
Timers Off: Mon Sep 24 10:09:23 2018

Wall Time:        7.57 seconds

V: Grid                     :      0.267u      0.017s      0.166w      1 calls
JK: (A|mn)                  :      0.767u      0.000s      0.227w      1 calls
JK: (A|Q)^-1/2              :      0.250u      0.000s      0.081w      1 calls
JK: (Q|mn)                  :      0.083u      0.000s      0.028w      1 calls
JK: (A|mn)^L                :      0.317u      0.000s      0.097w      1 calls
JK: (A|Q)^-1                :      0.267u      0.000s      0.078w      1 calls
JK: (Q|mn)^L                :      0.067u      0.000s      0.022w      1 calls
JK: (A|mn)^R                :      0.367u      0.000s      0.106w      1 calls
HF: Form H                  :      0.000u      0.000s      0.001w      1 calls
HF: Form S/X                :      0.000u      0.000s      0.003w      1 calls
HF: Guess                   :      0.283u      0.017s      0.090w      1 calls
SAD Guess                   :      0.250u      0.017s      0.084w      1 calls
HF: Form G                  :     11.617u      0.167s      3.525w     10 calls
RV: Form V                  :     10.367u      0.083s      3.131w     10 calls
Properties                  :      3.719p                          15862 calls
Functional                  :      1.372p                          15862 calls
V_xc                        :      1.790p                          14420 calls
JK: D                       :      0.000u      0.000s      0.000w     10 calls
JK: USO2AO                  :      0.000u      0.000s      0.000w     10 calls
JK: JK                      :      1.217u      0.083s      0.391w     10 calls
JK: J                       :      0.033u      0.033s      0.025w     10 calls
JK: J1                      :      0.000u      0.033s      0.019w     10 calls
JK: J2                      :      0.033u      0.000s      0.006w     10 calls
JK: K                       :      0.333u      0.000s      0.108w     10 calls
JK: K1                      :      0.267u      0.000s      0.095w     10 calls
JK: K2                      :      0.050u      0.000s      0.012w     10 calls
JK: wK                      :      0.717u      0.050s      0.242w     20 calls
JK: wK1                     :      0.617u      0.050s      0.221w     40 calls
JK: wK2                     :      0.100u      0.000s      0.020w     20 calls
JK: AO2USO                  :      0.000u      0.000s      0.000w     10 calls
HF: Form F                  :      0.000u      0.000s      0.000w     10 calls
HF: DIIS                    :      0.000u      0.000s      0.008w     10 calls
DIISManager::add_entry      :      0.000u      0.000s      0.002w      9 calls
DIISManager::extrapolate    :      0.000u      0.000s      0.003w      8 calls
bMatrix setup               :      0.000u      0.000s      0.001w      8 calls
bMatrix pseudoinverse       :      0.000u      0.000s      0.001w      8 calls
New vector                  :      0.000u      0.000s      0.001w      8 calls
HF: Form C                  :      0.050u      0.000s      0.015w     10 calls
HF: Form D                  :      0.000u      0.000s      0.000w     10 calls
Grad: V T Perturb           :      0.133u      0.033s      0.054w      1 calls
Grad: S                     :      0.000u      0.000s      0.001w      1 calls
Grad: JK                    :      4.183u      0.083s      1.274w      1 calls
JKGrad: Amn                 :      0.583u      0.017s      0.179w      1 calls
JKGrad: Awmn                :      0.550u      0.017s      0.171w      1 calls
JKGrad: AB                  :      0.283u      0.017s      0.085w      1 calls
JKGrad: UV                  :      0.000u      0.000s      0.005w      1 calls
JKGrad: ABx                 :      0.117u      0.000s      0.035w      1 calls
JKGrad: Amnx                :      2.600u      0.017s      0.785w      1 calls
Grad: XC                    :      1.867u      0.000s      0.563w      1 calls
V_xc gradient               :      0.414p                           1442 calls

-----------------------------------------------------------
V: Grid                     :      0.267u      0.017s      0.166w      1 calls
JK: (A|mn)                  :      0.767u      0.000s      0.227w      1 calls
JK: (A|Q)^-1/2              :      0.250u      0.000s      0.081w      1 calls
JK: (Q|mn)                  :      0.083u      0.000s      0.028w      1 calls
JK: (A|mn)^L                :      0.317u      0.000s      0.097w      1 calls
JK: (A|Q)^-1                :      0.267u      0.000s      0.078w      1 calls
JK: (Q|mn)^L                :      0.067u      0.000s      0.022w      1 calls
JK: (A|mn)^R                :      0.367u      0.000s      0.106w      1 calls
HF: Form H                  :      0.000u      0.000s      0.001w      1 calls
HF: Form S/X                :      0.000u      0.000s      0.003w      1 calls
HF: Guess                   :      0.283u      0.017s      0.090w      1 calls
| SAD Guess                 :      0.250u      0.017s      0.084w      1 calls
HF: Form G                  :     11.617u      0.167s      3.525w     10 calls
| RV: Form V                :     10.367u      0.083s      3.131w     10 calls
| | Properties              :      3.171p                          14420 calls
| | Functional              :      1.246p                          14420 calls
| | V_xc                    :      1.790p                          14420 calls
| JK: D                     :      0.000u      0.000s      0.000w     10 calls
| JK: USO2AO                :      0.000u      0.000s      0.000w     10 calls
| JK: JK                    :      1.217u      0.083s      0.391w     10 calls
| | JK: J                   :      0.033u      0.033s      0.025w     10 calls
| | | JK: J1                :      0.000u      0.033s      0.019w     10 calls
| | | JK: J2                :      0.033u      0.000s      0.006w     10 calls
| | JK: K                   :      0.333u      0.000s      0.108w     10 calls
| | | JK: K1                :      0.267u      0.000s      0.095w     10 calls
| | | JK: K2                :      0.050u      0.000s      0.012w     10 calls
| | JK: wK                  :      0.717u      0.050s      0.242w     20 calls
| | | JK: wK1               :      0.617u      0.050s      0.221w     40 calls
| | | JK: wK2               :      0.100u      0.000s      0.020w     20 calls
| JK: AO2USO                :      0.000u      0.000s      0.000w     10 calls
HF: Form F                  :      0.000u      0.000s      0.000w     10 calls
HF: DIIS                    :      0.000u      0.000s      0.008w     10 calls
| DIISManager::add_entry    :      0.000u      0.000s      0.002w      9 calls
| DIISManager::extrapolate  :      0.000u      0.000s      0.003w      8 calls
| | bMatrix setup           :      0.000u      0.000s      0.001w      8 calls
| | bMatrix pseudoinverse   :      0.000u      0.000s      0.001w      8 calls
| | New vector              :      0.000u      0.000s      0.001w      8 calls
HF: Form C                  :      0.050u      0.000s      0.015w     10 calls
HF: Form D                  :      0.000u      0.000s      0.000w     10 calls
Grad: V T Perturb           :      0.133u      0.033s      0.054w      1 calls
Grad: S                     :      0.000u      0.000s      0.001w      1 calls
Grad: JK                    :      4.183u      0.083s      1.274w      1 calls
| JKGrad: Amn               :      0.583u      0.017s      0.179w      1 calls
| JKGrad: Awmn              :      0.550u      0.017s      0.171w      1 calls
| JKGrad: AB                :      0.283u      0.017s      0.085w      1 calls
| JKGrad: UV                :      0.000u      0.000s      0.005w      1 calls
| JKGrad: ABx               :      0.117u      0.000s      0.035w      1 calls
| JKGrad: Amnx              :      2.600u      0.017s      0.785w      1 calls
Grad: XC                    :      1.867u      0.000s      0.563w      1 calls
| Properties                :      0.548p                           1442 calls
| Functional                :      0.126p                           1442 calls
| V_xc gradient             :      0.414p                           1442 calls

***********************************************************

Host: d-snes-l-dc-01

Timers On : Mon Sep 24 10:09:23 2018
Timers Off: Mon Sep 24 10:09:30 2018

Wall Time:        7.54 seconds

V: Grid                     :      0.267u      0.017s      0.171w      1 calls
JK: (A|mn)                  :      0.767u      0.000s      0.231w      1 calls
JK: (A|Q)^-1/2              :      0.250u      0.000s      0.078w      1 calls
JK: (Q|mn)                  :      0.100u      0.000s      0.029w      1 calls
JK: (A|mn)^L                :      0.317u      0.000s      0.095w      1 calls
JK: (A|Q)^-1                :      0.267u      0.017s      0.080w      1 calls
JK: (Q|mn)^L                :      0.067u      0.000s      0.023w      1 calls
JK: (A|mn)^R                :      0.350u      0.000s      0.107w      1 calls
HF: Form H                  :      0.000u      0.000s      0.001w      1 calls
HF: Form S/X                :      0.017u      0.000s      0.002w      1 calls
HF: Guess                   :      0.233u      0.000s      0.075w      1 calls
SAD Guess                   :      0.233u      0.000s      0.072w      1 calls
HF: Form G                  :     11.400u      0.117s      3.464w     10 calls
RV: Form V                  :     10.217u      0.050s      3.094w     10 calls
Properties                  :      3.671p                          15686 calls
Functional                  :      1.351p                          15686 calls
V_xc                        :      1.784p                          14260 calls
JK: D                       :      0.000u      0.000s      0.000w     10 calls
JK: USO2AO                  :      0.000u      0.000s      0.000w     10 calls
JK: JK                      :      1.133u      0.067s      0.368w     10 calls
JK: J                       :      0.017u      0.033s      0.024w     10 calls
JK: J1                      :      0.017u      0.033s      0.017w     10 calls
JK: J2                      :      0.000u      0.000s      0.006w     10 calls
JK: K                       :      0.350u      0.017s      0.107w     10 calls
JK: K1                      :      0.317u      0.000s      0.095w     10 calls
JK: K2                      :      0.017u      0.000s      0.012w     10 calls
JK: wK                      :      0.700u      0.017s      0.223w     20 calls
JK: wK1                     :      0.683u      0.017s      0.209w     40 calls
JK: wK2                     :      0.017u      0.000s      0.014w     20 calls
JK: AO2USO                  :      0.000u      0.000s      0.000w     10 calls
HF: Form F                  :      0.000u      0.000s      0.000w     10 calls
HF: DIIS                    :      0.033u      0.017s      0.007w     10 calls
DIISManager::add_entry      :      0.000u      0.000s      0.002w      9 calls
DIISManager::extrapolate    :      0.017u      0.017s      0.003w      8 calls
bMatrix setup               :      0.017u      0.000s      0.001w      8 calls
bMatrix pseudoinverse       :      0.000u      0.000s      0.001w      8 calls
New vector                  :      0.000u      0.017s      0.001w      8 calls
HF: Form C                  :      0.050u      0.000s      0.014w     10 calls
HF: Form D                  :      0.000u      0.000s      0.000w     10 calls
Grad: V T Perturb           :      0.150u      0.033s      0.054w      1 calls
Grad: S                     :      0.000u      0.000s      0.001w      1 calls
Grad: JK                    :      4.300u      0.083s      1.321w      1 calls
JKGrad: Amn                 :      0.700u      0.017s      0.212w      1 calls
JKGrad: Awmn                :      0.617u      0.033s      0.194w      1 calls
JKGrad: AB                  :      0.267u      0.000s      0.080w      1 calls
JKGrad: UV                  :      0.017u      0.000s      0.005w      1 calls
JKGrad: ABx                 :      0.117u      0.000s      0.036w      1 calls
JKGrad: Amnx                :      2.550u      0.033s      0.777w      1 calls
Grad: XC                    :      1.850u      0.017s      0.560w      1 calls
V_xc gradient               :      0.414p                           1426 calls

-----------------------------------------------------------
V: Grid                     :      0.267u      0.017s      0.171w      1 calls
JK: (A|mn)                  :      0.767u      0.000s      0.231w      1 calls
JK: (A|Q)^-1/2              :      0.250u      0.000s      0.078w      1 calls
JK: (Q|mn)                  :      0.100u      0.000s      0.029w      1 calls
JK: (A|mn)^L                :      0.317u      0.000s      0.095w      1 calls
JK: (A|Q)^-1                :      0.267u      0.017s      0.080w      1 calls
JK: (Q|mn)^L                :      0.067u      0.000s      0.023w      1 calls
JK: (A|mn)^R                :      0.350u      0.000s      0.107w      1 calls
HF: Form H                  :      0.000u      0.000s      0.001w      1 calls
HF: Form S/X                :      0.017u      0.000s      0.002w      1 calls
HF: Guess                   :      0.233u      0.000s      0.075w      1 calls
| SAD Guess                 :      0.233u      0.000s      0.072w      1 calls
HF: Form G                  :     11.400u      0.117s      3.464w     10 calls
[...]
HF: Guess                   :      0.250u      0.000s      0.074w      1 calls
| SAD Guess                 :      0.233u      0.000s      0.072w      1 calls
HF: Form G                  :     11.567u      0.100s      3.508w     10 calls
| RV: Form V                :     10.350u      0.050s      3.135w     10 calls
| | Properties              :      3.180p                          14260 calls
| | Functional              :      1.254p                          14260 calls
| | V_xc                    :      1.781p                          14260 calls
| JK: D                     :      0.000u      0.000s      0.000w     10 calls
| JK: USO2AO                :      0.017u      0.000s      0.000w     10 calls
| JK: JK                    :      1.167u      0.050s      0.371w     10 calls
| | JK: J                   :      0.033u      0.017s      0.024w     10 calls
| | | JK: J1                :      0.033u      0.017s      0.017w     10 calls
| | | JK: J2                :      0.000u      0.000s      0.006w     10 calls
| | JK: K                   :      0.350u      0.000s      0.111w     10 calls
| | | JK: K1                :      0.333u      0.000s      0.098w     10 calls
| | | JK: K2                :      0.000u      0.000s      0.013w     10 calls
| | JK: wK                  :      0.750u      0.033s      0.222w     20 calls
| | | JK: wK1               :      0.683u      0.033s      0.208w     40 calls
| | | JK: wK2               :      0.067u      0.000s      0.014w     20 calls
| JK: AO2USO                :      0.000u      0.000s      0.000w     10 calls
HF: Form F                  :      0.000u      0.000s      0.000w     10 calls
HF: DIIS                    :      0.033u      0.000s      0.007w     10 calls
| DIISManager::add_entry    :      0.017u      0.000s      0.002w      9 calls
| DIISManager::extrapolate  :      0.017u      0.000s      0.003w      8 calls
| | bMatrix setup           :      0.000u      0.000s      0.001w      8 calls
| | bMatrix pseudoinverse   :      0.000u      0.000s      0.000w      8 calls
| | New vector              :      0.017u      0.000s      0.001w      8 calls
HF: Form C                  :      0.067u      0.000s      0.016w     10 calls
HF: Form D                  :      0.000u      0.000s      0.000w     10 calls
Grad: V T Perturb           :      0.167u      0.033s      0.054w      1 calls
Grad: S                     :      0.000u      0.000s      0.001w      1 calls
Grad: JK                    :      4.333u      0.117s      1.341w      1 calls
| JKGrad: Amn               :      0.733u      0.050s      0.235w      1 calls
| JKGrad: Awmn              :      0.617u      0.017s      0.189w      1 calls
| JKGrad: AB                :      0.250u      0.017s      0.083w      1 calls
| JKGrad: UV                :      0.017u      0.000s      0.005w      1 calls
| JKGrad: ABx               :      0.117u      0.000s      0.035w      1 calls
| JKGrad: Amnx              :      2.567u      0.033s      0.780w      1 calls
Grad: XC                    :      1.867u      0.017s      0.562w      1 calls
| Properties                :      0.551p                           1426 calls
| Functional                :      0.122p                           1426 calls
| V_xc gradient             :      0.413p                           1426 calls

***********************************************************

Host: d-snes-l-dc-01

Timers On : Mon Sep 24 10:15:53 2018
Timers Off: Mon Sep 24 10:16:01 2018

Wall Time:        7.67 seconds

V: Grid                     :      0.233u      0.050s      0.169w      1 calls
JK: (A|mn)                  :      0.733u      0.000s      0.224w      1 calls
JK: (A|Q)^-1/2              :      0.267u      0.000s      0.081w      1 calls
JK: (Q|mn)                  :      0.083u      0.017s      0.030w      1 calls
JK: (A|mn)^L                :      0.317u      0.000s      0.097w      1 calls
JK: (A|Q)^-1                :      0.283u      0.000s      0.084w      1 calls
JK: (Q|mn)^L                :      0.083u      0.000s      0.026w      1 calls
JK: (A|mn)^R                :      0.350u      0.000s      0.107w      1 calls
HF: Form H                  :      0.050u      0.000s      0.023w      1 calls
HF: Form S/X                :      0.000u      0.000s      0.002w      1 calls
HF: Guess                   :      0.300u      0.000s      0.088w      1 calls
SAD Guess                   :      0.283u      0.000s      0.081w      1 calls
HF: Form G                  :     11.717u      0.133s      3.556w     10 calls
RV: Form V                  :     10.483u      0.067s      3.173w     10 calls
Properties                  :      3.795p                          15587 calls
Functional                  :      1.396p                          15587 calls
V_xc                        :      1.802p                          14170 calls
JK: D                       :      0.000u      0.000s      0.000w     10 calls
JK: USO2AO                  :      0.000u      0.000s      0.000w     10 calls
JK: JK                      :      1.217u      0.067s      0.382w     10 calls
JK: J                       :      0.083u      0.017s      0.025w     10 calls
JK: J1                      :      0.033u      0.017s      0.019w     10 calls
JK: J2                      :      0.050u      0.000s      0.006w     10 calls
JK: K                       :      0.350u      0.000s      0.109w     10 calls
JK: K1                      :      0.300u      0.000s      0.096w     10 calls
JK: K2                      :      0.050u      0.000s      0.012w     10 calls
JK: wK                      :      0.717u      0.033s      0.233w     20 calls
JK: wK1                     :      0.700u      0.033s      0.218w     40 calls
JK: wK2                     :      0.017u      0.000s      0.015w     20 calls
JK: AO2USO                  :      0.000u      0.000s      0.000w     10 calls
HF: Form F                  :      0.000u      0.000s      0.000w     10 calls
HF: DIIS                    :      0.017u      0.000s      0.008w     10 calls
DIISManager::add_entry      :      0.000u      0.000s      0.002w      9 calls
DIISManager::extrapolate    :      0.000u      0.000s      0.003w      8 calls
bMatrix setup               :      0.000u      0.000s      0.001w      8 calls
bMatrix pseudoinverse       :      0.000u      0.000s      0.001w      8 calls
New vector                  :      0.000u      0.000s      0.001w      8 calls
HF: Form C                  :      0.050u      0.000s      0.014w     10 calls
HF: Form D                  :      0.000u      0.000s      0.000w     10 calls
Grad: V T Perturb           :      0.167u      0.017s      0.054w      1 calls
Grad: S                     :      0.000u      0.000s      0.001w      1 calls
Grad: JK                    :      4.200u      0.083s      1.293w      1 calls
JKGrad: Amn                 :      0.567u      0.017s      0.177w      1 calls
JKGrad: Awmn                :      0.567u      0.017s      0.172w      1 calls
JKGrad: AB                  :      0.283u      0.000s      0.088w      1 calls
JKGrad: UV                  :      0.017u      0.000s      0.005w      1 calls
JKGrad: ABx                 :      0.117u      0.000s      0.037w      1 calls
JKGrad: Amnx                :      2.550u      0.033s      0.775w      1 calls
Grad: XC                    :      1.950u      0.000s      0.586w      1 calls
V_xc gradient               :      0.431p                           1417 calls

-----------------------------------------------------------
V: Grid                     :      0.233u      0.050s      0.169w      1 calls
JK: (A|mn)                  :      0.733u      0.000s      0.224w      1 calls
JK: (A|Q)^-1/2              :      0.267u      0.000s      0.081w      1 calls
JK: (Q|mn)                  :      0.083u      0.017s      0.030w      1 calls
JK: (A|mn)^L                :      0.317u      0.000s      0.097w      1 calls
JK: (A|Q)^-1                :      0.283u      0.000s      0.084w      1 calls
JK: (Q|mn)^L                :      0.083u      0.000s      0.026w      1 calls
JK: (A|mn)^R                :      0.350u      0.000s      0.107w      1 calls
HF: Form H                  :      0.050u      0.000s      0.023w      1 calls
HF: Form S/X                :      0.000u      0.000s      0.002w      1 calls
HF: Guess                   :      0.300u      0.000s      0.088w      1 calls
| SAD Guess                 :      0.283u      0.000s      0.081w      1 calls
HF: Form G                  :     11.717u      0.133s      3.556w     10 calls
| RV: Form V                :     10.483u      0.067s      3.173w     10 calls
| | Properties              :      3.222p                          14170 calls
| | Functional              :      1.265p                          14170 calls
| | V_xc                    :      1.802p                          14170 calls
| JK: D                     :      0.000u      0.000s      0.000w     10 calls
| JK: USO2AO                :      0.000u      0.000s      0.000w     10 calls
| JK: JK                    :      1.217u      0.067s      0.382w     10 calls
| | JK: J                   :      0.083u      0.017s      0.025w     10 calls
| | | JK: J1                :      0.033u      0.017s      0.019w     10 calls
| | | JK: J2                :      0.050u      0.000s      0.006w     10 calls
| | JK: K                   :      0.350u      0.000s      0.109w     10 calls
| | | JK: K1                :      0.300u      0.000s      0.096w     10 calls
| | | JK: K2                :      0.050u      0.000s      0.012w     10 calls
| | JK: wK                  :      0.717u      0.033s      0.233w     20 calls
| | | JK: wK1               :      0.700u      0.033s      0.218w     40 calls
| | | JK: wK2               :      0.017u      0.000s      0.015w     20 calls
| JK: AO2USO                :      0.000u      0.000s      0.000w     10 calls
HF: Form F                  :      0.000u      0.000s      0.000w     10 calls
HF: DIIS                    :      0.017u      0.000s      0.008w     10 calls
| DIISManager::add_entry    :      0.000u      0.000s      0.002w      9 calls
| DIISManager::extrapolate  :      0.000u      0.000s      0.003w      8 calls
| | bMatrix setup           :      0.000u      0.000s      0.001w      8 calls
| | bMatrix pseudoinverse   :      0.000u      0.000s      0.001w      8 calls
| | New vector              :      0.000u      0.000s      0.001w      8 calls
HF: Form C                  :      0.050u      0.000s      0.014w     10 calls
HF: Form D                  :      0.000u      0.000s      0.000w     10 calls
Grad: V T Perturb           :      0.167u      0.017s      0.054w      1 calls
Grad: S                     :      0.000u      0.000s      0.001w      1 calls
Grad: JK                    :      4.200u      0.083s      1.293w      1 calls
| JKGrad: Amn               :      0.567u      0.017s      0.177w      1 calls
| JKGrad: Awmn              :      0.567u      0.017s      0.172w      1 calls
| JKGrad: AB                :      0.283u      0.000s      0.088w      1 calls
| JKGrad: UV                :      0.017u      0.000s      0.005w      1 calls
| JKGrad: ABx               :      0.117u      0.000s      0.037w      1 calls
| JKGrad: Amnx              :      2.550u      0.033s      0.775w      1 calls
Grad: XC                    :      1.950u      0.000s      0.586w      1 calls
| Properties                :      0.573p                           1417 calls
| Functional                :      0.131p                           1417 calls
| V_xc gradient             :      0.431p                           1417 calls

***********************************************************

Host: d-snes-l-dc-01

Timers On : Mon Sep 24 10:16:01 2018
Timers Off: Mon Sep 24 10:16:09 2018

Wall Time:        7.58 seconds

V: Grid                     :      0.283u      0.000s      0.169w      1 calls
JK: (A|mn)                  :      0.717u      0.000s      0.217w      1 calls
JK: (A|Q)^-1/2              :      0.250u      0.000s      0.077w      1 calls
JK: (Q|mn)                  :      0.100u      0.017s      0.030w      1 calls
JK: (A|mn)^L                :      0.300u      0.000s      0.094w      1 calls
JK: (A|Q)^-1                :      0.250u      0.000s      0.075w      1 calls
JK: (Q|mn)^L                :      0.083u      0.000s      0.024w      1 calls
JK: (A|mn)^R                :      0.350u      0.000s      0.106w      1 calls
HF: Form H                  :      0.000u      0.000s      0.001w      1 calls
HF: Form S/X                :      0.000u      0.000s      0.002w      1 calls
HF: Guess                   :      0.250u      0.000s      0.075w      1 calls
SAD Guess                   :      0.250u      0.000s      0.072w      1 calls
HF: Form G                  :     11.650u      0.150s      3.542w     10 calls
RV: Form V                  :     10.467u      0.083s      3.167w     10 calls
Properties                  :      3.768p                          15642 calls
Functional                  :      1.391p                          15642 calls
V_xc                        :      1.815p                          14220 calls
JK: D                       :      0.000u      0.000s      0.000w     10 calls
JK: USO2AO                  :      0.000u      0.000s      0.000w     10 calls
JK: JK                      :      1.133u      0.067s      0.373w     10 calls
JK: J                       :      0.033u      0.033s      0.025w     10 calls
JK: J1                      :      0.033u      0.033s      0.018w     10 calls
JK: J2                      :      0.000u      0.000s      0.006w     10 calls
JK: K                       :      0.383u      0.000s      0.111w     10 calls
JK: K1                      :      0.333u      0.000s      0.098w     10 calls
JK: K2                      :      0.017u      0.000s      0.013w     10 calls
JK: wK                      :      0.683u      0.033s      0.222w     20 calls
JK: wK1                     :      0.650u      0.033s      0.207w     40 calls
JK: wK2                     :      0.017u      0.000s      0.015w     20 calls
JK: AO2USO                  :      0.000u      0.000s      0.000w     10 calls
HF: Form F                  :      0.000u      0.000s      0.000w     10 calls
HF: DIIS                    :      0.050u      0.000s      0.007w     10 calls
DIISManager::add_entry      :      0.017u      0.000s      0.002w      9 calls
DIISManager::extrapolate    :      0.033u      0.000s      0.003w      8 calls
bMatrix setup               :      0.017u      0.000s      0.001w      8 calls
bMatrix pseudoinverse       :      0.000u      0.000s      0.001w      8 calls
New vector                  :      0.017u      0.000s      0.001w      8 calls
HF: Form C                  :      0.033u      0.000s      0.013w     10 calls
HF: Form D                  :      0.000u      0.000s      0.000w     10 calls
Grad: V T Perturb           :      0.167u      0.017s      0.054w      1 calls
Grad: S                     :      0.000u      0.000s      0.001w      1 calls
Grad: JK                    :      4.183u      0.083s      1.278w      1 calls
JKGrad: Amn                 :      0.567u      0.017s      0.176w      1 calls
JKGrad: Awmn                :      0.567u      0.017s      0.173w      1 calls
JKGrad: AB                  :      0.267u      0.000s      0.082w      1 calls
JKGrad: UV                  :      0.017u      0.000s      0.005w      1 calls
JKGrad: ABx                 :      0.117u      0.000s      0.035w      1 calls
JKGrad: Amnx                :      2.617u      0.033s      0.793w      1 calls
Grad: XC                    :      1.917u      0.000s      0.576w      1 calls
V_xc gradient               :      0.426p                           1422 calls

-----------------------------------------------------------
V: Grid                     :      0.283u      0.000s      0.169w      1 calls
JK: (A|mn)                  :      0.717u      0.000s      0.217w      1 calls
JK: (A|Q)^-1/2              :      0.250u      0.000s      0.077w      1 calls
JK: (Q|mn)                  :      0.100u      0.017s      0.030w      1 calls
JK: (A|mn)^L                :      0.300u      0.000s      0.094w      1 calls
JK: (A|Q)^-1                :      0.250u      0.000s      0.075w      1 calls
JK: (Q|mn)^L                :      0.083u      0.000s      0.024w      1 calls
JK: (A|mn)^R                :      0.350u      0.000s      0.106w      1 calls
HF: Form H                  :      0.000u      0.000s      0.001w      1 calls
HF: Form S/X                :      0.000u      0.000s      0.002w      1 calls
HF: Guess                   :      0.250u      0.000s      0.075w      1 calls
| SAD Guess                 :      0.250u      0.000s      0.072w      1 calls
HF: Form G                  :     11.650u      0.150s      3.542w     10 calls
| RV: Form V                :     10.467u      0.083s      3.167w     10 calls
| | Properties              :      3.207p                          14220 calls
| | Functional              :      1.260p                          14220 calls
| | V_xc                    :      1.815p                          14220 calls
| JK: D                     :      0.000u      0.000s      0.000w     10 calls
| JK: USO2AO                :      0.000u      0.000s      0.000w     10 calls
| JK: JK                    :      1.133u      0.067s      0.373w     10 calls
| | JK: J                   :      0.033u      0.033s      0.025w     10 calls
| | | JK: J1                :      0.033u      0.033s      0.018w     10 calls
| | | JK: J2                :      0.000u      0.000s      0.006w     10 calls
| | JK: K                   :      0.383u      0.000s      0.111w     10 calls
| | | JK: K1                :      0.333u      0.000s      0.098w     10 calls
| | | JK: K2                :      0.017u      0.000s      0.013w     10 calls
| | JK: wK                  :      0.683u      0.033s      0.222w     20 calls
| | | JK: wK1               :      0.650u      0.033s      0.207w     40 calls
| | | JK: wK2               :      0.017u      0.000s      0.015w     20 calls
| JK: AO2USO                :      0.000u      0.000s      0.000w     10 calls
HF: Form F                  :      0.000u      0.000s      0.000w     10 calls
HF: DIIS                    :      0.050u      0.000s      0.007w     10 calls
| DIISManager::add_entry    :      0.017u      0.000s      0.002w      9 calls
| DIISManager::extrapolate  :      0.033u      0.000s      0.003w      8 calls
| | bMatrix setup           :      0.017u      0.000s      0.001w      8 calls
| | bMatrix pseudoinverse   :      0.000u      0.000s      0.001w      8 calls
| | New vector              :      0.017u      0.000s      0.001w      8 calls
HF: Form C                  :      0.033u      0.000s      0.013w     10 calls
HF: Form D                  :      0.000u      0.000s      0.000w     10 calls
Grad: V T Perturb           :      0.167u      0.017s      0.054w      1 calls
Grad: S                     :      0.000u      0.000s      0.001w      1 calls
Grad: JK                    :      4.183u      0.083s      1.278w      1 calls
| JKGrad: Amn               :      0.567u      0.017s      0.176w      1 calls
| JKGrad: Awmn              :      0.567u      0.017s      0.173w      1 calls
| JKGrad: AB                :      0.267u      0.000s      0.082w      1 calls
| JKGrad: UV                :      0.017u      0.000s      0.005w      1 calls
| JKGrad: ABx               :      0.117u      0.000s      0.035w      1 calls
| JKGrad: Amnx              :      2.617u      0.033s      0.793w      1 calls
Grad: XC                    :      1.917u      0.000s      0.576w      1 calls
| Properties                :      0.561p                           1422 calls
| Functional                :      0.131p                           1422 calls
| V_xc gradient             :      0.426p                           1422 calls

***********************************************************
