
    -----------------------------------------------------------------------
          Psi4: An Open-Source Ab Initio Electronic Structure Package
                               Psi4 1.2.1 release

                         Git: Rev {HEAD} 406f4de 


    R. M. Parrish, L. A. Burns, D. G. A. Smith, A. C. Simmonett,
    A. E. DePrince III, E. G. Hohenstein, U. Bozkaya, A. Yu. Sokolov,
    R. Di Remigio, R. M. Richard, J. F. Gonthier, A. M. James,
    H. R. McAlexander, A. Kumar, M. Saitow, X. Wang, B. P. Pritchard,
    P. Verma, H. F. Schaefer III, K. Patkowski, R. A. King, E. F. Valeev,
    F. A. Evangelista, J. M. Turney, T. D. Crawford, and C. D. Sherrill,
    J. Chem. Theory Comput. 13(7) pp 3185--3197 (2017).
    (doi: 10.1021/acs.jctc.7b00174)


                         Additional Contributions by
    P. Kraus, H. Kruse, M. H. Lechner, M. C. Schieber, and R. A. Shaw

    -----------------------------------------------------------------------


    Psi4 started on: Monday, 24 September 2018 10:16AM

    Process ID: 38109
    Host:       d-snes-l-dc-01
    PSIDATADIR: /home/b6056633/anaconda3/share/psi4
    Memory:     500.0 MiB
    Threads:    2
    
  ==> Input File <==

--------------------------------------------------------------------------
memory 2 GB

molecule ethane {
 0 1 
 C    -0.763553   0.023759  -0.024208
 C     0.761194  -0.016544   0.026481
 H    -1.196648  -0.075058   0.974706
 H    -1.121746   0.965730  -0.447904
 H    -1.161603  -0.787965  -0.638829
 H     1.159172   0.795130   0.641202
 H     1.194349   0.082419  -0.972394
 H     1.119417  -0.958543   0.450087
}

set basis 6-311++G(d,p)
frequency('wb97x-d')
set hessian_write on
hessian('wb97x-d')
--------------------------------------------------------------------------

  Memory set to   1.863 GiB by Python driver.
gradient() will perform analytic gradient computation.

*** tstart() called on d-snes-l-dc-01
*** at Mon Sep 24 10:16:10 2018

   => Loading Basis Set <=

    Name: 6-311++G(D,P)
    Role: ORBITAL
    Keyword: BASIS
    atoms 1-2 entry C          line   119 file /home/b6056633/anaconda3/share/psi4/basis/6-311ppg_d_p_.gbs 
    atoms 3-8 entry H          line    42 file /home/b6056633/anaconda3/share/psi4/basis/6-311ppg_d_p_.gbs 


         ---------------------------------------------------------
                                   SCF
            by Justin Turney, Rob Parrish, Andy Simmonett
                             and Daniel Smith
                              RKS Reference
                        2 Threads,   1907 MiB Core
         ---------------------------------------------------------

  ==> Geometry <==

    Molecular point group: c1
    Full point group: C1

    Geometry (in Angstrom), charge = 0, multiplicity = 1:

       Center              X                  Y                   Z               Mass       
    ------------   -----------------  -----------------  -----------------  -----------------
         C           -0.762374103750     0.020149219166    -0.025346143542    12.000000000000
         C            0.762372896250    -0.020153780834     0.025342856458    12.000000000000
         H           -1.195469103750    -0.078667780834     0.973567856458     1.007825032070
         H           -1.120567103750     0.962120219166    -0.449042143542     1.007825032070
         H           -1.160424103750    -0.791574780834    -0.639967143542     1.007825032070
         H            1.160350896250     0.791520219166     0.640063856458     1.007825032070
         H            1.195527896250     0.078809219166    -0.973532143542     1.007825032070
         H            1.120595896250    -0.962152780834     0.448948856458     1.007825032070

  Running in c1 symmetry.

  Rotational constants: A =      2.68657  B =      0.66773  C =      0.66771 [cm^-1]
  Rotational constants: A =  80541.47127  B =  20018.12239  C =  20017.35615 [MHz]
  Nuclear repulsion =   42.230217376508314

  Charge       = 0
  Multiplicity = 1
  Electrons    = 18
  Nalpha       = 9
  Nbeta        = 9

  ==> Algorithm <==

  SCF Algorithm Type is DF.
  DIIS enabled.
  MOM disabled.
  Fractional occupation disabled.
  Guess Type is SAD.
  Energy threshold   = 1.00e-08
  Density threshold  = 1.00e-08
  Integral threshold = 0.00e+00

  ==> Primary Basis <==

  Basis Set: 6-311++G(D,P)
    Blend: 6-311++G(D,P)
    Number of shells: 50
    Number of basis function: 86
    Number of Cartesian functions: 88
    Spherical Harmonics?: true
    Max angular momentum: 2

  ==> DFT Potential <==

   => Composite Functional: WB97X-D <= 

    wB97X-D Hyb-GGA Exchange-Correlation Functional

    J.-D. Chai and M. Head-Gordon, Phys. Chem. Chem. Phys. 10, 6615 (2008)

    Deriv               =              1
    GGA                 =           TRUE
    Meta                =          FALSE

    Exchange Hybrid     =           TRUE
    MP2 Hybrid          =          FALSE

   => Exchange-Correlation Functionals <=

    1.0000   wB97D range-separated functional

   => Exact (HF) Exchange <=

    0.7780            HF,LR [omega = 0.2000]
    0.2220               HF 

   => Molecular Quadrature <=

    Radial Scheme       =       TREUTLER
    Pruning Scheme      =           FLAT
    Nuclear Scheme      =       TREUTLER

    BS radius alpha     =              1
    Pruning alpha       =              1
    Radial Points       =             75
    Spherical Points    =            302
    Total Points        =         181200
    Total Blocks        =           1422
    Max Points          =            256
    Max Functions       =             86

   => -CHG: Empirical Dispersion <=

    Chai and Head-Gordon Dispersion Correction
    Chai, J.-D.; Head-Gordon, M. (2010), J. Chem. Phys., 132: 6615-6620

        S6 =   1.000000E+00

   => Loading Basis Set <=

    Name: (6-311++G(D,P) AUX)
    Role: JKFIT
    Keyword: DF_BASIS_SCF
    atoms 1-2 entry C          line   162 file /home/b6056633/anaconda3/share/psi4/basis/aug-cc-pvtz-jkfit.gbs 
    atoms 3-8 entry H          line    70 file /home/b6056633/anaconda3/share/psi4/basis/aug-cc-pvtz-jkfit.gbs 

  ==> Pre-Iterations <==

   -------------------------------------------------------
    Irrep   Nso     Nmo     Nalpha   Nbeta   Ndocc  Nsocc
   -------------------------------------------------------
     A         86      86       0       0       0       0
   -------------------------------------------------------
    Total      86      86       9       9       9       0
   -------------------------------------------------------

  ==> Integral Setup <==

  ==> DiskDFJK: Density-Fitted J/K Matrices <==

    J tasked:                  Yes
    K tasked:                  Yes
    wK tasked:                 Yes
    Omega:               2.000E-01
    OpenMP threads:              2
    Integrals threads:           2
    Memory (MB):              1430
    Algorithm:                Core
    Integral Cache:           NONE
    Schwarz Cutoff:          1E-12
    Fitting Condition:       1E-12

   => Auxiliary Basis Set <=

  Basis Set: (6-311++G(D,P) AUX)
    Blend: AUG-CC-PVTZ-JKFIT
    Number of shells: 144
    Number of basis function: 484
    Number of Cartesian functions: 592
    Spherical Harmonics?: true
    Max angular momentum: 4

  Minimum eigenvalue in the overlap matrix is 1.4841914802E-04.
  Using Symmetric Orthogonalization.

  SCF Guess: Superposition of Atomic Densities via on-the-fly atomic UHF.

  ==> Iterations <==

                           Total Energy        Delta E     RMS |[F,P]|

   @DF-RKS iter   0:   -79.99007907977592   -7.99901e+01   3.85846e-02 
   @DF-RKS iter   1:   -79.73690060524993    2.53178e-01   6.61059e-03 
   @DF-RKS iter   2:   -79.77143980187667   -3.45392e-02   5.18832e-03 DIIS
   @DF-RKS iter   3:   -79.82502527777237   -5.35855e-02   1.92316e-04 DIIS
   @DF-RKS iter   4:   -79.82518031193661   -1.55034e-04   3.29712e-05 DIIS
   @DF-RKS iter   5:   -79.82518618698833   -5.87505e-06   5.78201e-06 DIIS
   @DF-RKS iter   6:   -79.82518641330481   -2.26316e-07   1.03020e-06 DIIS
   @DF-RKS iter   7:   -79.82518642037337   -7.06856e-09   1.29051e-07 DIIS
   @DF-RKS iter   8:   -79.82518642047455   -1.01181e-10   2.09282e-08 DIIS
   @DF-RKS iter   9:   -79.82518642047673   -2.17426e-12   4.79813e-09 DIIS

  ==> Post-Iterations <==

    Orbital Energies [Eh]
    ---------------------

    Doubly Occupied:                                                      

       1A    -10.268981     2A    -10.268754     3A     -0.852307  
       4A     -0.710360     5A     -0.521673     6A     -0.521626  
       7A     -0.451307     8A     -0.424465     9A     -0.424433  

    Virtual:                                                              

      10A      0.044706    11A      0.061722    12A      0.070997  
      13A      0.071002    14A      0.102201    15A      0.102202  
      16A      0.140173    17A      0.146997    18A      0.147002  
      19A      0.174466    20A      0.178520    21A      0.194978  
      22A      0.198512    23A      0.198513    24A      0.247018  
      25A      0.247056    26A      0.279840    27A      0.279854  
      28A      0.325730    29A      0.366838    30A      0.376105  
      31A      0.510587    32A      0.510653    33A      0.531978  
      34A      0.535113    35A      0.535169    36A      0.731989  
      37A      0.732023    38A      0.733899    39A      0.745210  
      40A      0.745219    41A      0.793166    42A      0.815438  
      43A      0.928123    44A      0.982530    45A      1.043257  
      46A      1.043331    47A      1.344947    48A      1.345027  
      49A      1.551685    50A      1.558859    51A      1.631141  
      52A      1.631249    53A      1.647128    54A      1.647185  
      55A      1.655515    56A      1.787179    57A      1.787191  
      58A      1.842272    59A      1.940150    60A      1.940236  
      61A      2.184561    62A      2.211005    63A      2.220143  
      64A      2.220189    65A      2.416843    66A      2.417011  
      67A      2.522512    68A      2.568243    69A      2.568456  
      70A      2.584580    71A      2.698421    72A      2.698459  
      73A      2.728940    74A      2.728998    75A      2.761597  
      76A      2.761649    77A      2.934306    78A      2.949323  
      79A      3.313380    80A      3.905496    81A      3.905971  
      82A      3.918953    83A      3.919202    84A      4.330495  
      85A     24.048919    86A     24.139429  

    Final Occupation by Irrep:
              A 
    DOCC [     9 ]

  Energy converged.

  @DF-RKS Final Energy:   -79.82518642047673

   => Energetics <=

    Nuclear Repulsion Energy =             42.2302173765083140
    One-Electron Energy =                -189.3155638876185094
    Two-Electron Energy =                  76.0520397518200042
    DFT Exchange-Correlation Energy =      -8.7900177471944900
    Empirical Dispersion Energy =          -0.0018619139920408
    VV10 Nonlocal Energy =                  0.0000000000000000
    Total Energy =                        -79.8251864204767259



Properties will be evaluated at   0.000000,   0.000000,   0.000000 [a0]

Properties computed using the SCF density matrix

  Nuclear Dipole Moment: [e a0]
     X:     0.0000      Y:     0.0001      Z:     0.0000

  Electronic Dipole Moment: [e a0]
     X:    -0.0000      Y:    -0.0000      Z:    -0.0000

  Dipole Moment: [e a0]
     X:     0.0000      Y:     0.0000      Z:     0.0000     Total:     0.0000

  Dipole Moment: [D]
     X:     0.0000      Y:     0.0000      Z:     0.0000     Total:     0.0000


*** tstop() called on d-snes-l-dc-01 at Mon Sep 24 10:16:15 2018
Module time:
	user time   =       9.36 seconds =       0.16 minutes
	system time =       0.15 seconds =       0.00 minutes
	total time  =          5 seconds =       0.08 minutes
Total time:
	user time   =       9.36 seconds =       0.16 minutes
	system time =       0.15 seconds =       0.00 minutes
	total time  =          5 seconds =       0.08 minutes

*** tstart() called on d-snes-l-dc-01
*** at Mon Sep 24 10:16:15 2018


         ------------------------------------------------------------
                                   SCF GRAD                          
                          Rob Parrish, Justin Turney,                
                       Andy Simmonett, and Alex Sokolov              
         ------------------------------------------------------------

  ==> Geometry <==

    Molecular point group: c1
    Full point group: C1

    Geometry (in Angstrom), charge = 0, multiplicity = 1:

       Center              X                  Y                   Z               Mass       
    ------------   -----------------  -----------------  -----------------  -----------------
         C           -0.762374103750     0.020149219166    -0.025346143542    12.000000000000
         C            0.762372896250    -0.020153780834     0.025342856458    12.000000000000
         H           -1.195469103750    -0.078667780834     0.973567856458     1.007825032070
         H           -1.120567103750     0.962120219166    -0.449042143542     1.007825032070
         H           -1.160424103750    -0.791574780834    -0.639967143542     1.007825032070
         H            1.160350896250     0.791520219166     0.640063856458     1.007825032070
         H            1.195527896250     0.078809219166    -0.973532143542     1.007825032070
         H            1.120595896250    -0.962152780834     0.448948856458     1.007825032070

  Nuclear repulsion =   42.230217376508314

  ==> Basis Set <==

  Basis Set: 6-311++G(D,P)
    Blend: 6-311++G(D,P)
    Number of shells: 50
    Number of basis function: 86
    Number of Cartesian functions: 88
    Spherical Harmonics?: true
    Max angular momentum: 2

  ==> DFJKGrad: Density-Fitted SCF Gradients <==

    Gradient:                    1
    J tasked:                  Yes
    K tasked:                  Yes
    wK tasked:                 Yes
    Omega:               2.000E-01
    OpenMP threads:              2
    Integrals threads:           2
    Memory (MB):              1430
    Schwarz Cutoff:          0E+00
    Fitting Condition:       1E-12

   => Auxiliary Basis Set <=

  Basis Set: (6-311++G(D,P) AUX)
    Blend: AUG-CC-PVTZ-JKFIT
    Number of shells: 144
    Number of basis function: 484
    Number of Cartesian functions: 592
    Spherical Harmonics?: true
    Max angular momentum: 4

  ==> DFT Potential <==

   => Composite Functional: WB97X-D <= 

    wB97X-D Hyb-GGA Exchange-Correlation Functional

    J.-D. Chai and M. Head-Gordon, Phys. Chem. Chem. Phys. 10, 6615 (2008)

    Deriv               =              1
    GGA                 =           TRUE
    Meta                =          FALSE

    Exchange Hybrid     =           TRUE
    MP2 Hybrid          =          FALSE

   => Exchange-Correlation Functionals <=

    1.0000   wB97D range-separated functional

   => Exact (HF) Exchange <=

    0.7780            HF,LR [omega = 0.2000]
    0.2220               HF 

   => Molecular Quadrature <=

    Radial Scheme       =       TREUTLER
    Pruning Scheme      =           FLAT
    Nuclear Scheme      =       TREUTLER

    BS radius alpha     =              1
    Pruning alpha       =              1
    Radial Points       =             75
    Spherical Points    =            302
    Total Points        =         181200
    Total Blocks        =           1422
    Max Points          =            256
    Max Functions       =             86


  -Total Gradient:
     Atom            X                  Y                   Z
    ------   -----------------  -----------------  -----------------
       1        0.000012356158     0.000034374448     0.000050336789
       2       -0.000013287554    -0.000034436543    -0.000047264207
       3        0.000019972111     0.000024736711     0.000025732509
       4       -0.000008684204     0.000014114876     0.000055800831
       5       -0.000004929905    -0.000029438901     0.000024782276
       6        0.000000044882     0.000026799535    -0.000027713483
       7       -0.000015746320    -0.000022399826    -0.000024611898
       8        0.000010082919    -0.000013634425    -0.000056781844


*** tstop() called on d-snes-l-dc-01 at Mon Sep 24 10:16:17 2018
Module time:
	user time   =       3.72 seconds =       0.06 minutes
	system time =       0.06 seconds =       0.00 minutes
	total time  =          2 seconds =       0.03 minutes
Total time:
	user time   =      13.08 seconds =       0.22 minutes
	system time =       0.21 seconds =       0.00 minutes
	total time  =          7 seconds =       0.12 minutes

  Based on options and gradient (rms=2.91E-05), recommend projecting translations and projecting rotations.
hessian() will perform frequency computation by finite difference of analytic gradients.

-------------------------------------------------------------

  Using finite-differences of gradients to determine vibrational frequencies and 
  normal modes.  Resulting frequencies are only valid at stationary points.
	Generating geometries for use with 3-point formula.
	Displacement size will be 5.00e-03.
	Number of atoms is 8.
	Number of irreps is 1.
	Number of SALCS is 18.
	Translations projected? 1. Rotations projected? 1.
	Index of salcs per irrep:
	 1 :  0  1  2  3  4  5  6  7  8  9  10  11  12  13  14  15  16  17 
	Number of SALC's per irrep:
		 Irrep 1: 18
	Number of geometries (including reference) is 37.
	Number of displacements per irrep:
	  Irrep 1: 36

  //>>>>>>>>>>>>>>>>>>>>>>>>>>>>>>>>>>>//
  //    Loading displacement 1 of 37   //
  //<<<<<<<<<<<<<<<<<<<<<<<<<<<<<<<<<<<//
gradient() will perform analytic gradient computation.

*** tstart() called on d-snes-l-dc-01
*** at Mon Sep 24 10:16:17 2018

   => Loading Basis Set <=

    Name: 6-311++G(D,P)
    Role: ORBITAL
    Keyword: BASIS
    atoms 1-2 entry C          line   119 file /home/b6056633/anaconda3/share/psi4/basis/6-311ppg_d_p_.gbs 
    atoms 3-8 entry H          line    42 file /home/b6056633/anaconda3/share/psi4/basis/6-311ppg_d_p_.gbs 


         ---------------------------------------------------------
                                   SCF
            by Justin Turney, Rob Parrish, Andy Simmonett
                             and Daniel Smith
                              RKS Reference
                        2 Threads,   1907 MiB Core
         ---------------------------------------------------------

  ==> Geometry <==

    Molecular point group: c1
    Full point group: C1

    Geometry (in Angstrom), charge = 0, multiplicity = 1:

       Center              X                  Y                   Z               Mass       
    ------------   -----------------  -----------------  -----------------  -----------------
         C           -0.762965804315     0.020156418007    -0.025355199380    12.000000000000
         C            0.762766172430    -0.020160979663     0.025351912282    12.000000000000
         H           -1.195087643599    -0.078656494093     0.973553655932     1.007825032070
         H           -1.120158917355     0.962130800980    -0.449055452630     1.007825032070
         H           -1.160030208901    -0.791563822352    -0.639980928960     1.007825032070
         H            1.160744534776     0.791509261375     0.640077641006     1.007825032070
         H            1.195933972049     0.078797931870    -0.973517942317     1.007825032070
         H            1.120975245694    -0.962163362919     0.448962165887     1.007825032070

  Running in c1 symmetry.

  Rotational constants: A =      2.68657  B =      0.66726  C =      0.66723 [cm^-1]
  Rotational constants: A =  80541.47142  B =  20003.82272  C =  20003.05756 [MHz]
  Nuclear repulsion =   42.223262350407317

  Charge       = 0
  Multiplicity = 1
  Electrons    = 18
  Nalpha       = 9
  Nbeta        = 9

  ==> Algorithm <==

  SCF Algorithm Type is DF.
  DIIS enabled.
  MOM disabled.
  Fractional occupation disabled.
  Guess Type is SAD.
  Energy threshold   = 1.00e-08
  Density threshold  = 1.00e-08
  Integral threshold = 0.00e+00

  ==> Primary Basis <==

  Basis Set: 6-311++G(D,P)
    Blend: 6-311++G(D,P)
    Number of shells: 50
    Number of basis function: 86
    Number of Cartesian functions: 88
    Spherical Harmonics?: true
    Max angular momentum: 2

  ==> DFT Potential <==

   => Composite Functional: WB97X-D <= 

    wB97X-D Hyb-GGA Exchange-Correlation Functional

    J.-D. Chai and M. Head-Gordon, Phys. Chem. Chem. Phys. 10, 6615 (2008)

    Deriv               =              1
    GGA                 =           TRUE
    Meta                =          FALSE

    Exchange Hybrid     =           TRUE
    MP2 Hybrid          =          FALSE

   => Exchange-Correlation Functionals <=

    1.0000   wB97D range-separated functional

   => Exact (HF) Exchange <=

    0.7780            HF,LR [omega = 0.2000]
    0.2220               HF 

   => Molecular Quadrature <=

    Radial Scheme       =       TREUTLER
    Pruning Scheme      =           FLAT
    Nuclear Scheme      =       TREUTLER

    BS radius alpha     =              1
    Pruning alpha       =              1
    Radial Points       =             75
    Spherical Points    =            302
    Total Points        =         181200
    Total Blocks        =           1424
    Max Points          =            256
    Max Functions       =             86

   => -CHG: Empirical Dispersion <=

    Chai and Head-Gordon Dispersion Correction
    Chai, J.-D.; Head-Gordon, M. (2010), J. Chem. Phys., 132: 6615-6620

        S6 =   1.000000E+00

   => Loading Basis Set <=

    Name: (6-311++G(D,P) AUX)
    Role: JKFIT
    Keyword: DF_BASIS_SCF
    atoms 1-2 entry C          line   162 file /home/b6056633/anaconda3/share/psi4/basis/aug-cc-pvtz-jkfit.gbs 
    atoms 3-8 entry H          line    70 file /home/b6056633/anaconda3/share/psi4/basis/aug-cc-pvtz-jkfit.gbs 

  ==> Pre-Iterations <==

   -------------------------------------------------------
    Irrep   Nso     Nmo     Nalpha   Nbeta   Ndocc  Nsocc
   -------------------------------------------------------
     A         86      86       0       0       0       0
   -------------------------------------------------------
    Total      86      86       9       9       9       0
   -------------------------------------------------------

  ==> Integral Setup <==

  ==> DiskDFJK: Density-Fitted J/K Matrices <==

    J tasked:                  Yes
    K tasked:                  Yes
    wK tasked:                 Yes
    Omega:               2.000E-01
    OpenMP threads:              2
    Integrals threads:           2
    Memory (MB):              1430
    Algorithm:                Core
    Integral Cache:           NONE
    Schwarz Cutoff:          1E-12
    Fitting Condition:       1E-12

   => Auxiliary Basis Set <=

  Basis Set: (6-311++G(D,P) AUX)
    Blend: AUG-CC-PVTZ-JKFIT
    Number of shells: 144
    Number of basis function: 484
    Number of Cartesian functions: 592
    Spherical Harmonics?: true
    Max angular momentum: 4

  Minimum eigenvalue in the overlap matrix is 1.4881073283E-04.
  Using Symmetric Orthogonalization.

  SCF Guess: Superposition of Atomic Densities via on-the-fly atomic UHF.

  ==> Iterations <==

                           Total Energy        Delta E     RMS |[F,P]|

   @DF-RKS iter   0:   -80.20569748105871   -8.02057e+01   4.15555e-02 
   @DF-RKS iter   1:   -79.80129750882801    4.04400e-01   3.27011e-03 
   @DF-RKS iter   2:   -79.81792377511435   -1.66263e-02   1.96808e-03 DIIS
   @DF-RKS iter   3:   -79.82490473206070   -6.98096e-03   3.28533e-04 DIIS
   @DF-RKS iter   4:   -79.82517589211839   -2.71160e-04   4.35092e-05 DIIS
   @DF-RKS iter   5:   -79.82518514469420   -9.25258e-06   8.10102e-06 DIIS
   @DF-RKS iter   6:   -79.82518551688123   -3.72187e-07   1.23872e-06 DIIS
   @DF-RKS iter   7:   -79.82518552766246   -1.07812e-08   2.41193e-07 DIIS
   @DF-RKS iter   8:   -79.82518552789776   -2.35303e-10   7.64034e-08 DIIS
   @DF-RKS iter   9:   -79.82518552791561   -1.78488e-11   3.68712e-08 DIIS
   @DF-RKS iter  10:   -79.82518552791879   -3.18323e-12   3.02885e-09 DIIS

  ==> Post-Iterations <==

    Orbital Energies [Eh]
    ---------------------

    Doubly Occupied:                                                      

       1A    -10.268982     2A    -10.268746     3A     -0.852169  
       4A     -0.710428     5A     -0.521656     6A     -0.521613  
       7A     -0.451039     8A     -0.424602     9A     -0.424575  

    Virtual:                                                              

      10A      0.044708    11A      0.061724    12A      0.071001  
      13A      0.071006    14A      0.102198    15A      0.102200  
      16A      0.140182    17A      0.146994    18A      0.146999  
      19A      0.174436    20A      0.178531    21A      0.194985  
      22A      0.198506    23A      0.198508    24A      0.247147  
      25A      0.247182    26A      0.279832    27A      0.279839  
      28A      0.325590    29A      0.366583    30A      0.376107  
      31A      0.510605    32A      0.510672    33A      0.532087  
      34A      0.535061    35A      0.535121    36A      0.732050  
      37A      0.732079    38A      0.733533    39A      0.745328  
      40A      0.745332    41A      0.793224    42A      0.815500  
      43A      0.928199    44A      0.982501    45A      1.043222  
      46A      1.043298    47A      1.344937    48A      1.345022  
      49A      1.551642    50A      1.558816    51A      1.631130  
      52A      1.631240    53A      1.647270    54A      1.647332  
      55A      1.655093    56A      1.787116    57A      1.787128  
      58A      1.842182    59A      1.940254    60A      1.940344  
      61A      2.183965    62A      2.210652    63A      2.220083  
      64A      2.220119    65A      2.417321    66A      2.417493  
      67A      2.523016    68A      2.568045    69A      2.568254  
      70A      2.584954    71A      2.698655    72A      2.698684  
      73A      2.728964    74A      2.729014    75A      2.761065  
      76A      2.761087    77A      2.934335    78A      2.948943  
      79A      3.311979    80A      3.905977    81A      3.906440  
      82A      3.919042    83A      3.919254    84A      4.329504  
      85A     24.048456    86A     24.139912  

    Final Occupation by Irrep:
              A 
    DOCC [     9 ]

  Energy converged.

  @DF-RKS Final Energy:   -79.82518552791879

   => Energetics <=

    Nuclear Repulsion Energy =             42.2232623504073175
    One-Electron Energy =                -189.3018411327403783
    Two-Electron Energy =                  76.0452685434626687
    DFT Exchange-Correlation Energy =      -8.7900129164504808
    Empirical Dispersion Energy =          -0.0018623725979028
    VV10 Nonlocal Energy =                  0.0000000000000000
    Total Energy =                        -79.8251855279187765



Properties will be evaluated at   0.000000,   0.000000,   0.000000 [a0]

Properties computed using the SCF density matrix

  Nuclear Dipole Moment: [e a0]
     X:     0.0022      Y:     0.0001      Z:     0.0000

  Electronic Dipole Moment: [e a0]
     X:    -0.0023      Y:    -0.0000      Z:    -0.0000

  Dipole Moment: [e a0]
     X:    -0.0001      Y:     0.0000      Z:     0.0000     Total:     0.0001

  Dipole Moment: [D]
     X:    -0.0002      Y:     0.0000      Z:     0.0000     Total:     0.0002


*** tstop() called on d-snes-l-dc-01 at Mon Sep 24 10:16:22 2018
Module time:
	user time   =      10.08 seconds =       0.17 minutes
	system time =       0.07 seconds =       0.00 minutes
	total time  =          5 seconds =       0.08 minutes
Total time:
	user time   =      23.17 seconds =       0.39 minutes
	system time =       0.28 seconds =       0.00 minutes
	total time  =         12 seconds =       0.20 minutes

*** tstart() called on d-snes-l-dc-01
*** at Mon Sep 24 10:16:22 2018


         ------------------------------------------------------------
                                   SCF GRAD                          
                          Rob Parrish, Justin Turney,                
                       Andy Simmonett, and Alex Sokolov              
         ------------------------------------------------------------

  ==> Geometry <==

    Molecular point group: c1
    Full point group: C1

    Geometry (in Angstrom), charge = 0, multiplicity = 1:

       Center              X                  Y                   Z               Mass       
    ------------   -----------------  -----------------  -----------------  -----------------
         C           -0.762965804315     0.020156418007    -0.025355199380    12.000000000000
         C            0.762766172430    -0.020160979663     0.025351912282    12.000000000000
         H           -1.195087643599    -0.078656494093     0.973553655932     1.007825032070
         H           -1.120158917355     0.962130800980    -0.449055452630     1.007825032070
         H           -1.160030208901    -0.791563822352    -0.639980928960     1.007825032070
         H            1.160744534776     0.791509261375     0.640077641006     1.007825032070
         H            1.195933972049     0.078797931870    -0.973517942317     1.007825032070
         H            1.120975245694    -0.962163362919     0.448962165887     1.007825032070

  Nuclear repulsion =   42.223262350407317

  ==> Basis Set <==

  Basis Set: 6-311++G(D,P)
    Blend: 6-311++G(D,P)
    Number of shells: 50
    Number of basis function: 86
    Number of Cartesian functions: 88
    Spherical Harmonics?: true
    Max angular momentum: 2

  ==> DFJKGrad: Density-Fitted SCF Gradients <==

    Gradient:                    1
    J tasked:                  Yes
    K tasked:                  Yes
    wK tasked:                 Yes
    Omega:               2.000E-01
    OpenMP threads:              2
    Integrals threads:           2
    Memory (MB):              1430
    Schwarz Cutoff:          0E+00
    Fitting Condition:       1E-12

   => Auxiliary Basis Set <=

  Basis Set: (6-311++G(D,P) AUX)
    Blend: AUG-CC-PVTZ-JKFIT
    Number of shells: 144
    Number of basis function: 484
    Number of Cartesian functions: 592
    Spherical Harmonics?: true
    Max angular momentum: 4

  ==> DFT Potential <==

   => Composite Functional: WB97X-D <= 

    wB97X-D Hyb-GGA Exchange-Correlation Functional

    J.-D. Chai and M. Head-Gordon, Phys. Chem. Chem. Phys. 10, 6615 (2008)

    Deriv               =              1
    GGA                 =           TRUE
    Meta                =          FALSE

    Exchange Hybrid     =           TRUE
    MP2 Hybrid          =          FALSE

   => Exchange-Correlation Functionals <=

    1.0000   wB97D range-separated functional

   => Exact (HF) Exchange <=

    0.7780            HF,LR [omega = 0.2000]
    0.2220               HF 

   => Molecular Quadrature <=

    Radial Scheme       =       TREUTLER
    Pruning Scheme      =           FLAT
    Nuclear Scheme      =       TREUTLER

    BS radius alpha     =              1
    Pruning alpha       =              1
    Radial Points       =             75
    Spherical Points    =            302
    Total Points        =         181200
    Total Blocks        =           1424
    Max Points          =            256
    Max Functions       =             86


  -Total Gradient:
     Atom            X                  Y                   Z
    ------   -----------------  -----------------  -----------------
       1       -0.000882245846     0.000029585485     0.000055616230
       2        0.000373789454    -0.000040693029    -0.000039209143
       3        0.000178361981     0.000041905818    -0.000148640623
       4        0.000126051615    -0.000120173636     0.000115723590
       5        0.000142884067     0.000099733014     0.000122061707
       6        0.000022776667     0.000024155569    -0.000028490368
       7        0.000008923677    -0.000023331263    -0.000021083114
       8        0.000030474858    -0.000011997926    -0.000057079805


*** tstop() called on d-snes-l-dc-01 at Mon Sep 24 10:16:24 2018
Module time:
	user time   =       3.70 seconds =       0.06 minutes
	system time =       0.01 seconds =       0.00 minutes
	total time  =          2 seconds =       0.03 minutes
Total time:
	user time   =      26.87 seconds =       0.45 minutes
	system time =       0.29 seconds =       0.00 minutes
	total time  =         14 seconds =       0.23 minutes

  //>>>>>>>>>>>>>>>>>>>>>>>>>>>>>>>>>>>//
  //    Loading displacement 2 of 37   //
  //<<<<<<<<<<<<<<<<<<<<<<<<<<<<<<<<<<<//
gradient() will perform analytic gradient computation.

*** tstart() called on d-snes-l-dc-01
*** at Mon Sep 24 10:16:24 2018

   => Loading Basis Set <=

    Name: 6-311++G(D,P)
    Role: ORBITAL
    Keyword: BASIS
    atoms 1-2 entry C          line   119 file /home/b6056633/anaconda3/share/psi4/basis/6-311ppg_d_p_.gbs 
    atoms 3-8 entry H          line    42 file /home/b6056633/anaconda3/share/psi4/basis/6-311ppg_d_p_.gbs 


         ---------------------------------------------------------
                                   SCF
            by Justin Turney, Rob Parrish, Andy Simmonett
                             and Daniel Smith
                              RKS Reference
                        2 Threads,   1907 MiB Core
         ---------------------------------------------------------

  ==> Geometry <==

    Molecular point group: c1
    Full point group: C1

    Geometry (in Angstrom), charge = 0, multiplicity = 1:

       Center              X                  Y                   Z               Mass       
    ------------   -----------------  -----------------  -----------------  -----------------
         C           -0.761782403185     0.020142020326    -0.025337087704    12.000000000000
         C            0.761979620070    -0.020146582005     0.025333800634    12.000000000000
         H           -1.195850563901    -0.078679067575     0.973582056984     1.007825032070
         H           -1.120975290145     0.962109637352    -0.449028834455     1.007825032070
         H           -1.160817998599    -0.791585739316    -0.639953358124     1.007825032070
         H            1.159957257724     0.791531176957     0.640050071910     1.007825032070
         H            1.195121820451     0.078820506462    -0.973546344767     1.007825032070
         H            1.120216546806    -0.962142198748     0.448935547029     1.007825032070

  Running in c1 symmetry.

  Rotational constants: A =      2.68657  B =      0.66821  C =      0.66818 [cm^-1]
  Rotational constants: A =  80541.47097  B =  20032.43139  C =  20031.66409 [MHz]
  Nuclear repulsion =   42.237179725117649

  Charge       = 0
  Multiplicity = 1
  Electrons    = 18
  Nalpha       = 9
  Nbeta        = 9

  ==> Algorithm <==

  SCF Algorithm Type is DF.
  DIIS enabled.
  MOM disabled.
  Fractional occupation disabled.
  Guess Type is SAD.
  Energy threshold   = 1.00e-08
  Density threshold  = 1.00e-08
  Integral threshold = 0.00e+00

  ==> Primary Basis <==

  Basis Set: 6-311++G(D,P)
    Blend: 6-311++G(D,P)
    Number of shells: 50
    Number of basis function: 86
    Number of Cartesian functions: 88
    Spherical Harmonics?: true
    Max angular momentum: 2

  ==> DFT Potential <==

   => Composite Functional: WB97X-D <= 

    wB97X-D Hyb-GGA Exchange-Correlation Functional

    J.-D. Chai and M. Head-Gordon, Phys. Chem. Chem. Phys. 10, 6615 (2008)

    Deriv               =              1
    GGA                 =           TRUE
    Meta                =          FALSE

    Exchange Hybrid     =           TRUE
    MP2 Hybrid          =          FALSE

   => Exchange-Correlation Functionals <=

    1.0000   wB97D range-separated functional

   => Exact (HF) Exchange <=

    0.7780            HF,LR [omega = 0.2000]
    0.2220               HF 

   => Molecular Quadrature <=

    Radial Scheme       =       TREUTLER
    Pruning Scheme      =           FLAT
    Nuclear Scheme      =       TREUTLER

    BS radius alpha     =              1
    Pruning alpha       =              1
    Radial Points       =             75
    Spherical Points    =            302
    Total Points        =         181200
    Total Blocks        =           1424
    Max Points          =            256
    Max Functions       =             86

   => -CHG: Empirical Dispersion <=

    Chai and Head-Gordon Dispersion Correction
    Chai, J.-D.; Head-Gordon, M. (2010), J. Chem. Phys., 132: 6615-6620

        S6 =   1.000000E+00

   => Loading Basis Set <=

    Name: (6-311++G(D,P) AUX)
    Role: JKFIT
    Keyword: DF_BASIS_SCF
    atoms 1-2 entry C          line   162 file /home/b6056633/anaconda3/share/psi4/basis/aug-cc-pvtz-jkfit.gbs 
    atoms 3-8 entry H          line    70 file /home/b6056633/anaconda3/share/psi4/basis/aug-cc-pvtz-jkfit.gbs 

  ==> Pre-Iterations <==

   -------------------------------------------------------
    Irrep   Nso     Nmo     Nalpha   Nbeta   Ndocc  Nsocc
   -------------------------------------------------------
     A         86      86       0       0       0       0
   -------------------------------------------------------
    Total      86      86       9       9       9       0
   -------------------------------------------------------

  ==> Integral Setup <==

  ==> DiskDFJK: Density-Fitted J/K Matrices <==

    J tasked:                  Yes
    K tasked:                  Yes
    wK tasked:                 Yes
    Omega:               2.000E-01
    OpenMP threads:              2
    Integrals threads:           2
    Memory (MB):              1430
    Algorithm:                Core
    Integral Cache:           NONE
    Schwarz Cutoff:          1E-12
    Fitting Condition:       1E-12

   => Auxiliary Basis Set <=

  Basis Set: (6-311++G(D,P) AUX)
    Blend: AUG-CC-PVTZ-JKFIT
    Number of shells: 144
    Number of basis function: 484
    Number of Cartesian functions: 592
    Spherical Harmonics?: true
    Max angular momentum: 4

  Minimum eigenvalue in the overlap matrix is 1.4802825318E-04.
  Using Symmetric Orthogonalization.

  SCF Guess: Superposition of Atomic Densities via on-the-fly atomic UHF.

  ==> Iterations <==

                           Total Energy        Delta E     RMS |[F,P]|

   @DF-RKS iter   0:   -80.06144822188062   -8.00614e+01   3.87791e-02 
   @DF-RKS iter   1:   -79.75765587049419    3.03792e-01   5.26602e-03 
   @DF-RKS iter   2:   -79.79176840438193   -3.41125e-02   3.92963e-03 DIIS
   @DF-RKS iter   3:   -79.82490544491439   -3.31370e-02   2.79939e-04 DIIS
   @DF-RKS iter   4:   -79.82517050958852   -2.65065e-04   5.77711e-05 DIIS
   @DF-RKS iter   5:   -79.82518515883515   -1.46492e-05   8.07856e-06 DIIS
   @DF-RKS iter   6:   -79.82518562120350   -4.62368e-07   1.47305e-06 DIIS
   @DF-RKS iter   7:   -79.82518563661777   -1.54143e-08   3.55669e-07 DIIS
   @DF-RKS iter   8:   -79.82518563713393   -5.16152e-10   1.56149e-07 DIIS
   @DF-RKS iter   9:   -79.82518563720404   -7.01164e-11   3.67597e-08 DIIS
   @DF-RKS iter  10:   -79.82518563720889   -4.84590e-12   3.87801e-09 DIIS

  ==> Post-Iterations <==

    Orbital Energies [Eh]
    ---------------------

    Doubly Occupied:                                                      

       1A    -10.268992     2A    -10.268752     3A     -0.852447  
       4A     -0.710291     5A     -0.521691     6A     -0.521639  
       7A     -0.451575     8A     -0.424329     9A     -0.424289  

    Virtual:                                                              

      10A      0.044703    11A      0.061720    12A      0.070993  
      13A      0.070998    14A      0.102203    15A      0.102205  
      16A      0.140164    17A      0.146999    18A      0.147004  
      19A      0.174497    20A      0.178509    21A      0.194970  
      22A      0.198518    23A      0.198519    24A      0.246888  
      25A      0.246929    26A      0.279847    27A      0.279868  
      28A      0.325869    29A      0.367093    30A      0.376104  
      31A      0.510568    32A      0.510634    33A      0.531870  
      34A      0.535163    35A      0.535219    36A      0.731928  
      37A      0.731968    38A      0.734266    39A      0.745093  
      40A      0.745105    41A      0.793108    42A      0.815375  
      43A      0.928046    44A      0.982560    45A      1.043292  
      46A      1.043364    47A      1.344955    48A      1.345033  
      49A      1.551728    50A      1.558903    51A      1.631152  
      52A      1.631258    53A      1.646987    54A      1.647039  
      55A      1.655936    56A      1.787242    57A      1.787254  
      58A      1.842362    59A      1.940043    60A      1.940131  
      61A      2.185146    62A      2.211370    63A      2.220199  
      64A      2.220257    65A      2.416361    66A      2.416525  
      67A      2.522001    68A      2.568443    69A      2.568660  
      70A      2.584214    71A      2.698191    72A      2.698238  
      73A      2.728915    74A      2.728982    75A      2.762112  
      76A      2.762234    77A      2.934272    78A      2.949705  
      79A      3.314787    80A      3.904971    81A      3.905462  
      82A      3.918897    83A      3.919192    84A      4.331479  
      85A     24.049387    86A     24.138947  

    Final Occupation by Irrep:
              A 
    DOCC [     9 ]

  Energy converged.

  @DF-RKS Final Energy:   -79.82518563720889

   => Energetics <=

    Nuclear Repulsion Energy =             42.2371797251176488
    One-Electron Energy =                -189.3292966514403588
    Two-Electron Energy =                  76.0588153553191546
    DFT Exchange-Correlation Energy =      -8.7900226100485384
    Empirical Dispersion Energy =          -0.0018614561567926
    VV10 Nonlocal Energy =                  0.0000000000000000
    Total Energy =                        -79.8251856372088895



Properties will be evaluated at   0.000000,   0.000000,   0.000000 [a0]

Properties computed using the SCF density matrix

  Nuclear Dipole Moment: [e a0]
     X:    -0.0022      Y:     0.0001      Z:     0.0000

  Electronic Dipole Moment: [e a0]
     X:     0.0023      Y:    -0.0000      Z:    -0.0000

  Dipole Moment: [e a0]
     X:     0.0001      Y:     0.0000      Z:     0.0000     Total:     0.0001

  Dipole Moment: [D]
     X:     0.0002      Y:     0.0000      Z:     0.0000     Total:     0.0002


*** tstop() called on d-snes-l-dc-01 at Mon Sep 24 10:16:29 2018
Module time:
	user time   =       9.99 seconds =       0.17 minutes
	system time =       0.07 seconds =       0.00 minutes
	total time  =          5 seconds =       0.08 minutes
Total time:
	user time   =      36.87 seconds =       0.61 minutes
	system time =       0.36 seconds =       0.01 minutes
	total time  =         19 seconds =       0.32 minutes

*** tstart() called on d-snes-l-dc-01
*** at Mon Sep 24 10:16:29 2018


         ------------------------------------------------------------
                                   SCF GRAD                          
                          Rob Parrish, Justin Turney,                
                       Andy Simmonett, and Alex Sokolov              
         ------------------------------------------------------------

  ==> Geometry <==

    Molecular point group: c1
    Full point group: C1

    Geometry (in Angstrom), charge = 0, multiplicity = 1:

       Center              X                  Y                   Z               Mass       
    ------------   -----------------  -----------------  -----------------  -----------------
         C           -0.761782403185     0.020142020326    -0.025337087704    12.000000000000
         C            0.761979620070    -0.020146582005     0.025333800634    12.000000000000
         H           -1.195850563901    -0.078679067575     0.973582056984     1.007825032070
         H           -1.120975290145     0.962109637352    -0.449028834455     1.007825032070
         H           -1.160817998599    -0.791585739316    -0.639953358124     1.007825032070
         H            1.159957257724     0.791531176957     0.640050071910     1.007825032070
         H            1.195121820451     0.078820506462    -0.973546344767     1.007825032070
         H            1.120216546806    -0.962142198748     0.448935547029     1.007825032070

  Nuclear repulsion =   42.237179725117649

  ==> Basis Set <==

  Basis Set: 6-311++G(D,P)
    Blend: 6-311++G(D,P)
    Number of shells: 50
    Number of basis function: 86
    Number of Cartesian functions: 88
    Spherical Harmonics?: true
    Max angular momentum: 2

  ==> DFJKGrad: Density-Fitted SCF Gradients <==

    Gradient:                    1
    J tasked:                  Yes
    K tasked:                  Yes
    wK tasked:                 Yes
    Omega:               2.000E-01
    OpenMP threads:              2
    Integrals threads:           2
    Memory (MB):              1430
    Schwarz Cutoff:          0E+00
    Fitting Condition:       1E-12

   => Auxiliary Basis Set <=

  Basis Set: (6-311++G(D,P) AUX)
    Blend: AUG-CC-PVTZ-JKFIT
    Number of shells: 144
    Number of basis function: 484
    Number of Cartesian functions: 592
    Spherical Harmonics?: true
    Max angular momentum: 4

  ==> DFT Potential <==

   => Composite Functional: WB97X-D <= 

    wB97X-D Hyb-GGA Exchange-Correlation Functional

    J.-D. Chai and M. Head-Gordon, Phys. Chem. Chem. Phys. 10, 6615 (2008)

    Deriv               =              1
    GGA                 =           TRUE
    Meta                =          FALSE

    Exchange Hybrid     =           TRUE
    MP2 Hybrid          =          FALSE

   => Exchange-Correlation Functionals <=

    1.0000   wB97D range-separated functional

   => Exact (HF) Exchange <=

    0.7780            HF,LR [omega = 0.2000]
    0.2220               HF 

   => Molecular Quadrature <=

    Radial Scheme       =       TREUTLER
    Pruning Scheme      =           FLAT
    Nuclear Scheme      =       TREUTLER

    BS radius alpha     =              1
    Pruning alpha       =              1
    Radial Points       =             75
    Spherical Points    =            302
    Total Points        =         181200
    Total Blocks        =           1424
    Max Points          =            256
    Max Functions       =             86


  -Total Gradient:
     Atom            X                  Y                   Z
    ------   -----------------  -----------------  -----------------
       1        0.000910400941     0.000038962192     0.000045291836
       2       -0.000402966124    -0.000028106589    -0.000055360777
       3       -0.000138661527     0.000007599931     0.000199755457
       4       -0.000143717501     0.000148292288    -0.000004099893
       5       -0.000152997531    -0.000158406823    -0.000072364822
       6       -0.000022710736     0.000029433457    -0.000026944395
       7       -0.000040437963    -0.000021465330    -0.000028162210
       8       -0.000010326272    -0.000015266520    -0.000056489784


*** tstop() called on d-snes-l-dc-01 at Mon Sep 24 10:16:31 2018
Module time:
	user time   =       3.63 seconds =       0.06 minutes
	system time =       0.02 seconds =       0.00 minutes
	total time  =          2 seconds =       0.03 minutes
Total time:
	user time   =      40.50 seconds =       0.68 minutes
	system time =       0.38 seconds =       0.01 minutes
	total time  =         21 seconds =       0.35 minutes

  //>>>>>>>>>>>>>>>>>>>>>>>>>>>>>>>>>>>//
  //    Loading displacement 3 of 37   //
  //<<<<<<<<<<<<<<<<<<<<<<<<<<<<<<<<<<<//
gradient() will perform analytic gradient computation.

*** tstart() called on d-snes-l-dc-01
*** at Mon Sep 24 10:16:31 2018

   => Loading Basis Set <=

    Name: 6-311++G(D,P)
    Role: ORBITAL
    Keyword: BASIS
    atoms 1-2 entry C          line   119 file /home/b6056633/anaconda3/share/psi4/basis/6-311ppg_d_p_.gbs 
    atoms 3-8 entry H          line    42 file /home/b6056633/anaconda3/share/psi4/basis/6-311ppg_d_p_.gbs 


         ---------------------------------------------------------
                                   SCF
            by Justin Turney, Rob Parrish, Andy Simmonett
                             and Daniel Smith
                              RKS Reference
                        2 Threads,   1907 MiB Core
         ---------------------------------------------------------

  ==> Geometry <==

    Molecular point group: c1
    Full point group: C1

    Geometry (in Angstrom), charge = 0, multiplicity = 1:

       Center              X                  Y                   Z               Mass       
    ------------   -----------------  -----------------  -----------------  -----------------
         C           -0.762374103750     0.019714471085    -0.025345971325    12.000000000000
         C            0.762369608392    -0.019989091541     0.025342684167    12.000000000000
         H           -1.195501045756    -0.077566166010     0.973566337403     1.007825032070
         H           -1.120092508820     0.963208483896    -0.449026759853     1.007825032070
         H           -1.160802482390    -0.790464031420    -0.639980222919     1.007825032070
         H            1.160742288847     0.791481354244     0.640076934935     1.007825032070
         H            1.195572947561     0.078779425618    -0.973530622180     1.007825032070
         H            1.120134326016    -0.962169207602     0.448933472247     1.007825032070

  Running in c1 symmetry.

  Rotational constants: A =      2.68657  B =      0.66774  C =      0.66772 [cm^-1]
  Rotational constants: A =  80541.39292  B =  20018.39923  C =  20017.62839 [MHz]
  Nuclear repulsion =   42.230349847020491

  Charge       = 0
  Multiplicity = 1
  Electrons    = 18
  Nalpha       = 9
  Nbeta        = 9

  ==> Algorithm <==

  SCF Algorithm Type is DF.
  DIIS enabled.
  MOM disabled.
  Fractional occupation disabled.
  Guess Type is SAD.
  Energy threshold   = 1.00e-08
  Density threshold  = 1.00e-08
  Integral threshold = 0.00e+00

  ==> Primary Basis <==

  Basis Set: 6-311++G(D,P)
    Blend: 6-311++G(D,P)
    Number of shells: 50
    Number of basis function: 86
    Number of Cartesian functions: 88
    Spherical Harmonics?: true
    Max angular momentum: 2

  ==> DFT Potential <==

   => Composite Functional: WB97X-D <= 

    wB97X-D Hyb-GGA Exchange-Correlation Functional

    J.-D. Chai and M. Head-Gordon, Phys. Chem. Chem. Phys. 10, 6615 (2008)

    Deriv               =              1
    GGA                 =           TRUE
    Meta                =          FALSE

    Exchange Hybrid     =           TRUE
    MP2 Hybrid          =          FALSE

   => Exchange-Correlation Functionals <=

    1.0000   wB97D range-separated functional

   => Exact (HF) Exchange <=

    0.7780            HF,LR [omega = 0.2000]
    0.2220               HF 

   => Molecular Quadrature <=

    Radial Scheme       =       TREUTLER
    Pruning Scheme      =           FLAT
    Nuclear Scheme      =       TREUTLER

    BS radius alpha     =              1
    Pruning alpha       =              1
    Radial Points       =             75
    Spherical Points    =            302
    Total Points        =         181200
    Total Blocks        =           1421
    Max Points          =            256
    Max Functions       =             86

   => -CHG: Empirical Dispersion <=

    Chai and Head-Gordon Dispersion Correction
    Chai, J.-D.; Head-Gordon, M. (2010), J. Chem. Phys., 132: 6615-6620

        S6 =   1.000000E+00

   => Loading Basis Set <=

    Name: (6-311++G(D,P) AUX)
    Role: JKFIT
    Keyword: DF_BASIS_SCF
    atoms 1-2 entry C          line   162 file /home/b6056633/anaconda3/share/psi4/basis/aug-cc-pvtz-jkfit.gbs 
    atoms 3-8 entry H          line    70 file /home/b6056633/anaconda3/share/psi4/basis/aug-cc-pvtz-jkfit.gbs 

  ==> Pre-Iterations <==

   -------------------------------------------------------
    Irrep   Nso     Nmo     Nalpha   Nbeta   Ndocc  Nsocc
   -------------------------------------------------------
     A         86      86       0       0       0       0
   -------------------------------------------------------
    Total      86      86       9       9       9       0
   -------------------------------------------------------

  ==> Integral Setup <==

  ==> DiskDFJK: Density-Fitted J/K Matrices <==

    J tasked:                  Yes
    K tasked:                  Yes
    wK tasked:                 Yes
    Omega:               2.000E-01
    OpenMP threads:              2
    Integrals threads:           2
    Memory (MB):              1430
    Algorithm:                Core
    Integral Cache:           NONE
    Schwarz Cutoff:          1E-12
    Fitting Condition:       1E-12

   => Auxiliary Basis Set <=

  Basis Set: (6-311++G(D,P) AUX)
    Blend: AUG-CC-PVTZ-JKFIT
    Number of shells: 144
    Number of basis function: 484
    Number of Cartesian functions: 592
    Spherical Harmonics?: true
    Max angular momentum: 4

  Minimum eigenvalue in the overlap matrix is 1.4841153964E-04.
  Using Symmetric Orthogonalization.

  SCF Guess: Superposition of Atomic Densities via on-the-fly atomic UHF.

  ==> Iterations <==

                           Total Energy        Delta E     RMS |[F,P]|

   @DF-RKS iter   0:   -79.99044159395638   -7.99904e+01   3.73393e-02 
   @DF-RKS iter   1:   -79.73711331510692    2.53328e-01   6.60276e-03 
   @DF-RKS iter   2:   -79.77154160938862   -3.44283e-02   5.12899e-03 DIIS
   @DF-RKS iter   3:   -79.82502322471923   -5.34816e-02   1.83704e-04 DIIS
   @DF-RKS iter   4:   -79.82517850693661   -1.55282e-04   3.16477e-05 DIIS
   @DF-RKS iter   5:   -79.82518430914790   -5.80221e-06   5.40039e-06 DIIS
   @DF-RKS iter   6:   -79.82518452928316   -2.20135e-07   1.02081e-06 DIIS
   @DF-RKS iter   7:   -79.82518453617838   -6.89522e-09   1.29103e-07 DIIS
   @DF-RKS iter   8:   -79.82518453627969   -1.01309e-10   2.10552e-08 DIIS
   @DF-RKS iter   9:   -79.82518453628167   -1.97531e-12   5.36622e-09 DIIS

  ==> Post-Iterations <==

    Orbital Energies [Eh]
    ---------------------

    Doubly Occupied:                                                      

       1A    -10.268982     2A    -10.268755     3A     -0.852310  
       4A     -0.710359     5A     -0.521785     6A     -0.521515  
       7A     -0.451313     8A     -0.424626     9A     -0.424265  

    Virtual:                                                              

      10A      0.044706    11A      0.061722    12A      0.070989  
      13A      0.071009    14A      0.102188    15A      0.102214  
      16A      0.140173    17A      0.146966    18A      0.147032  
      19A      0.174467    20A      0.178520    21A      0.194978  
      22A      0.198503    23A      0.198523    24A      0.246945  
      25A      0.247122    26A      0.279731    27A      0.279963  
      28A      0.325733    29A      0.366842    30A      0.376105  
      31A      0.510583    32A      0.510655    33A      0.531976  
      34A      0.534930    35A      0.535356    36A      0.731859  
      37A      0.732149    38A      0.733906    39A      0.745146  
      40A      0.745280    41A      0.793165    42A      0.815437  
      43A      0.928121    44A      0.982530    45A      1.043181  
      46A      1.043408    47A      1.344726    48A      1.345248  
      49A      1.551685    50A      1.558859    51A      1.631098  
      52A      1.631294    53A      1.647028    54A      1.647279  
      55A      1.655524    56A      1.787178    57A      1.787193  
      58A      1.842273    59A      1.939889    60A      1.940490  
      61A      2.184570    62A      2.210996    63A      2.220002  
      64A      2.220349    65A      2.416723    66A      2.417103  
      67A      2.522498    68A      2.568164    69A      2.568545  
      70A      2.584569    71A      2.698300    72A      2.698569  
      73A      2.728774    74A      2.729178    75A      2.760517  
      76A      2.762758    77A      2.934306    78A      2.949329  
      79A      3.313406    80A      3.905092    81A      3.906236  
      82A      3.917974    83A      3.920292    84A      4.330515  
      85A     24.048929    86A     24.139421  

    Final Occupation by Irrep:
              A 
    DOCC [     9 ]

  Energy converged.

  @DF-RKS Final Energy:   -79.82518453628167

   => Energetics <=

    Nuclear Repulsion Energy =             42.2303498470204914
    One-Electron Energy =                -189.3158200997903293
    Two-Electron Energy =                  76.0521650414598582
    DFT Exchange-Correlation Energy =      -8.7900174198680432
    Empirical Dispersion Energy =          -0.0018619051036595
    VV10 Nonlocal Energy =                  0.0000000000000000
    Total Energy =                        -79.8251845362816539



Properties will be evaluated at   0.000000,   0.000000,   0.000000 [a0]

Properties computed using the SCF density matrix

  Nuclear Dipole Moment: [e a0]
     X:     0.0001      Y:     0.0031      Z:     0.0000

  Electronic Dipole Moment: [e a0]
     X:    -0.0001      Y:    -0.0033      Z:    -0.0000

  Dipole Moment: [e a0]
     X:    -0.0000      Y:    -0.0002      Z:     0.0000     Total:     0.0002

  Dipole Moment: [D]
     X:    -0.0000      Y:    -0.0006      Z:     0.0000     Total:     0.0006


*** tstop() called on d-snes-l-dc-01 at Mon Sep 24 10:16:36 2018
Module time:
	user time   =       9.25 seconds =       0.15 minutes
	system time =       0.06 seconds =       0.00 minutes
	total time  =          5 seconds =       0.08 minutes
Total time:
	user time   =      49.77 seconds =       0.83 minutes
	system time =       0.45 seconds =       0.01 minutes
	total time  =         26 seconds =       0.43 minutes

*** tstart() called on d-snes-l-dc-01
*** at Mon Sep 24 10:16:36 2018


         ------------------------------------------------------------
                                   SCF GRAD                          
                          Rob Parrish, Justin Turney,                
                       Andy Simmonett, and Alex Sokolov              
         ------------------------------------------------------------

  ==> Geometry <==

    Molecular point group: c1
    Full point group: C1

    Geometry (in Angstrom), charge = 0, multiplicity = 1:

       Center              X                  Y                   Z               Mass       
    ------------   -----------------  -----------------  -----------------  -----------------
         C           -0.762374103750     0.019714471085    -0.025345971325    12.000000000000
         C            0.762369608392    -0.019989091541     0.025342684167    12.000000000000
         H           -1.195501045756    -0.077566166010     0.973566337403     1.007825032070
         H           -1.120092508820     0.963208483896    -0.449026759853     1.007825032070
         H           -1.160802482390    -0.790464031420    -0.639980222919     1.007825032070
         H            1.160742288847     0.791481354244     0.640076934935     1.007825032070
         H            1.195572947561     0.078779425618    -0.973530622180     1.007825032070
         H            1.120134326016    -0.962169207602     0.448933472247     1.007825032070

  Nuclear repulsion =   42.230349847020491

  ==> Basis Set <==

  Basis Set: 6-311++G(D,P)
    Blend: 6-311++G(D,P)
    Number of shells: 50
    Number of basis function: 86
    Number of Cartesian functions: 88
    Spherical Harmonics?: true
    Max angular momentum: 2

  ==> DFJKGrad: Density-Fitted SCF Gradients <==

    Gradient:                    1
    J tasked:                  Yes
    K tasked:                  Yes
    wK tasked:                 Yes
    Omega:               2.000E-01
    OpenMP threads:              2
    Integrals threads:           2
    Memory (MB):              1430
    Schwarz Cutoff:          0E+00
    Fitting Condition:       1E-12

   => Auxiliary Basis Set <=

  Basis Set: (6-311++G(D,P) AUX)
    Blend: AUG-CC-PVTZ-JKFIT
    Number of shells: 144
    Number of basis function: 484
    Number of Cartesian functions: 592
    Spherical Harmonics?: true
    Max angular momentum: 4

  ==> DFT Potential <==

   => Composite Functional: WB97X-D <= 

    wB97X-D Hyb-GGA Exchange-Correlation Functional

    J.-D. Chai and M. Head-Gordon, Phys. Chem. Chem. Phys. 10, 6615 (2008)

    Deriv               =              1
    GGA                 =           TRUE
    Meta                =          FALSE

    Exchange Hybrid     =           TRUE
    MP2 Hybrid          =          FALSE

   => Exchange-Correlation Functionals <=

    1.0000   wB97D range-separated functional

   => Exact (HF) Exchange <=

    0.7780            HF,LR [omega = 0.2000]
    0.2220               HF 

   => Molecular Quadrature <=

    Radial Scheme       =       TREUTLER
    Pruning Scheme      =           FLAT
    Nuclear Scheme      =       TREUTLER

    BS radius alpha     =              1
    Pruning alpha       =              1
    Radial Points       =             75
    Spherical Points    =            302
    Total Points        =         181200
    Total Blocks        =           1421
    Max Points          =            256
    Max Functions       =             86


  -Total Gradient:
     Atom            X                  Y                   Z
    ------   -----------------  -----------------  -----------------
       1       -0.000011233422    -0.001410074232     0.000045521271
       2       -0.000015238398     0.000167191854    -0.000046117688
       3        0.000045609190     0.000153407086    -0.000033043375
       4       -0.000185260666     0.000635021802    -0.000169164082
       5        0.000171242169     0.000472036403     0.000309055091
       6        0.000067136491     0.000020590109    -0.000028103688
       7       -0.000007336635    -0.000020949226    -0.000023685328
       8       -0.000066427155    -0.000016209609    -0.000055817086


*** tstop() called on d-snes-l-dc-01 at Mon Sep 24 10:16:38 2018
Module time:
	user time   =       3.64 seconds =       0.06 minutes
	system time =       0.01 seconds =       0.00 minutes
	total time  =          2 seconds =       0.03 minutes
Total time:
	user time   =      53.41 seconds =       0.89 minutes
	system time =       0.46 seconds =       0.01 minutes
	total time  =         28 seconds =       0.47 minutes

  //>>>>>>>>>>>>>>>>>>>>>>>>>>>>>>>>>>>//
  //    Loading displacement 4 of 37   //
  //<<<<<<<<<<<<<<<<<<<<<<<<<<<<<<<<<<<//
gradient() will perform analytic gradient computation.

*** tstart() called on d-snes-l-dc-01
*** at Mon Sep 24 10:16:38 2018

   => Loading Basis Set <=

    Name: 6-311++G(D,P)
    Role: ORBITAL
    Keyword: BASIS
    atoms 1-2 entry C          line   119 file /home/b6056633/anaconda3/share/psi4/basis/6-311ppg_d_p_.gbs 
    atoms 3-8 entry H          line    42 file /home/b6056633/anaconda3/share/psi4/basis/6-311ppg_d_p_.gbs 


         ---------------------------------------------------------
                                   SCF
            by Justin Turney, Rob Parrish, Andy Simmonett
                             and Daniel Smith
                              RKS Reference
                        2 Threads,   1907 MiB Core
         ---------------------------------------------------------

  ==> Geometry <==

    Molecular point group: c1
    Full point group: C1

    Geometry (in Angstrom), charge = 0, multiplicity = 1:

       Center              X                  Y                   Z               Mass       
    ------------   -----------------  -----------------  -----------------  -----------------
         C           -0.762374103750     0.020583967247    -0.025346315759    12.000000000000
         C            0.762376184107    -0.020318470126     0.025343028749    12.000000000000
         H           -1.195437161744    -0.079769395658     0.973569375513     1.007825032070
         H           -1.121041698680     0.961031954436    -0.449057527231     1.007825032070
         H           -1.160045725110    -0.792685530248    -0.639954064165     1.007825032070
         H            1.159959503653     0.791559084088     0.640050777981     1.007825032070
         H            1.195482844939     0.078839012714    -0.973533664904     1.007825032070
         H            1.121057466484    -0.962136354065     0.448964240669     1.007825032070

  Running in c1 symmetry.

  Rotational constants: A =      2.68657  B =      0.66772  C =      0.66770 [cm^-1]
  Rotational constants: A =  80541.40167  B =  20017.84297  C =  20017.07343 [MHz]
  Nuclear repulsion =   42.230079619512637

  Charge       = 0
  Multiplicity = 1
  Electrons    = 18
  Nalpha       = 9
  Nbeta        = 9

  ==> Algorithm <==

  SCF Algorithm Type is DF.
  DIIS enabled.
  MOM disabled.
  Fractional occupation disabled.
  Guess Type is SAD.
  Energy threshold   = 1.00e-08
  Density threshold  = 1.00e-08
  Integral threshold = 0.00e+00

  ==> Primary Basis <==

  Basis Set: 6-311++G(D,P)
    Blend: 6-311++G(D,P)
    Number of shells: 50
    Number of basis function: 86
    Number of Cartesian functions: 88
    Spherical Harmonics?: true
    Max angular momentum: 2

  ==> DFT Potential <==

   => Composite Functional: WB97X-D <= 

    wB97X-D Hyb-GGA Exchange-Correlation Functional

    J.-D. Chai and M. Head-Gordon, Phys. Chem. Chem. Phys. 10, 6615 (2008)

    Deriv               =              1
    GGA                 =           TRUE
    Meta                =          FALSE

    Exchange Hybrid     =           TRUE
    MP2 Hybrid          =          FALSE

   => Exchange-Correlation Functionals <=

    1.0000   wB97D range-separated functional

   => Exact (HF) Exchange <=

    0.7780            HF,LR [omega = 0.2000]
    0.2220               HF 

   => Molecular Quadrature <=

    Radial Scheme       =       TREUTLER
    Pruning Scheme      =           FLAT
    Nuclear Scheme      =       TREUTLER

    BS radius alpha     =              1
    Pruning alpha       =              1
    Radial Points       =             75
    Spherical Points    =            302
    Total Points        =         181200
    Total Blocks        =           1424
    Max Points          =            256
    Max Functions       =             86

   => -CHG: Empirical Dispersion <=

    Chai and Head-Gordon Dispersion Correction
    Chai, J.-D.; Head-Gordon, M. (2010), J. Chem. Phys., 132: 6615-6620

        S6 =   1.000000E+00

   => Loading Basis Set <=

    Name: (6-311++G(D,P) AUX)
    Role: JKFIT
    Keyword: DF_BASIS_SCF
    atoms 1-2 entry C          line   162 file /home/b6056633/anaconda3/share/psi4/basis/aug-cc-pvtz-jkfit.gbs 
    atoms 3-8 entry H          line    70 file /home/b6056633/anaconda3/share/psi4/basis/aug-cc-pvtz-jkfit.gbs 

  ==> Pre-Iterations <==

   -------------------------------------------------------
    Irrep   Nso     Nmo     Nalpha   Nbeta   Ndocc  Nsocc
   -------------------------------------------------------
     A         86      86       0       0       0       0
   -------------------------------------------------------
    Total      86      86       9       9       9       0
   -------------------------------------------------------

  ==> Integral Setup <==

  ==> DiskDFJK: Density-Fitted J/K Matrices <==

    J tasked:                  Yes
    K tasked:                  Yes
    wK tasked:                 Yes
    Omega:               2.000E-01
    OpenMP threads:              2
    Integrals threads:           2
    Memory (MB):              1430
    Algorithm:                Core
    Integral Cache:           NONE
    Schwarz Cutoff:          1E-12
    Fitting Condition:       1E-12

   => Auxiliary Basis Set <=

  Basis Set: (6-311++G(D,P) AUX)
    Blend: AUG-CC-PVTZ-JKFIT
    Number of shells: 144
    Number of basis function: 484
    Number of Cartesian functions: 592
    Spherical Harmonics?: true
    Max angular momentum: 4

  Minimum eigenvalue in the overlap matrix is 1.4842683847E-04.
  Using Symmetric Orthogonalization.

  SCF Guess: Superposition of Atomic Densities via on-the-fly atomic UHF.

  ==> Iterations <==

                           Total Energy        Delta E     RMS |[F,P]|

   @DF-RKS iter   0:   -80.00223321950051   -8.00022e+01   3.67439e-02 
   @DF-RKS iter   1:   -79.74119933005007    2.61034e-01   6.55773e-03 
   @DF-RKS iter   2:   -79.77531745922086   -3.41181e-02   5.16590e-03 DIIS
   @DF-RKS iter   3:   -79.82500367048894   -4.96862e-02   1.92265e-04 DIIS
   @DF-RKS iter   4:   -79.82517726064728   -1.73590e-04   3.74913e-05 DIIS
   @DF-RKS iter   5:   -79.82518440652910   -7.14588e-06   6.31232e-06 DIIS
   @DF-RKS iter   6:   -79.82518470356209   -2.97033e-07   1.08653e-06 DIIS
   @DF-RKS iter   7:   -79.82518471242140   -8.85932e-09   1.53129e-07 DIIS
   @DF-RKS iter   8:   -79.82518471257639   -1.54984e-10   3.26085e-08 DIIS
   @DF-RKS iter   9:   -79.82518471258155   -5.15854e-12   7.00264e-09 DIIS

  ==> Post-Iterations <==

    Orbital Energies [Eh]
    ---------------------

    Doubly Occupied:                                                      

       1A    -10.268981     2A    -10.268755     3A     -0.852305  
       4A     -0.710361     5A     -0.521770     6A     -0.521529  
       7A     -0.451304     8A     -0.424623     9A     -0.424278  

    Virtual:                                                              

      10A      0.044706    11A      0.061722    12A      0.070991  
      13A      0.071008    14A      0.102188    15A      0.102215  
      16A      0.140174    17A      0.146963    18A      0.147036  
      19A      0.174466    20A      0.178520    21A      0.194978  
      22A      0.198504    23A      0.198521    24A      0.246963  
      25A      0.247115    26A      0.279726    27A      0.279967  
      28A      0.325728    29A      0.366833    30A      0.376105  
      31A      0.510588    32A      0.510651    33A      0.531980  
      34A      0.534890    35A      0.535393    36A      0.731869  
      37A      0.732143    38A      0.733892    39A      0.745147  
      40A      0.745288    41A      0.793167    42A      0.815440  
      43A      0.928124    44A      0.982528    45A      1.043139  
      46A      1.043450    47A      1.344676    48A      1.345297  
      49A      1.551683    50A      1.558857    51A      1.631036  
      52A      1.631354    53A      1.647021    54A      1.647297  
      55A      1.655509    56A      1.787169    57A      1.787198  
      58A      1.842270    59A      1.939829    60A      1.940558  
      61A      2.184546    62A      2.210982    63A      2.219977  
      64A      2.220370    65A      2.416651    66A      2.417213  
      67A      2.522517    68A      2.568221    69A      2.568473  
      70A      2.584585    71A      2.698292    72A      2.698593  
      73A      2.728782    74A      2.729171    75A      2.760472  
      76A      2.762763    77A      2.934307    78A      2.949315  
      79A      3.313351    80A      3.905251    81A      3.906116  
      82A      3.918038    83A      3.920231    84A      4.330477  
      85A     24.048910    86A     24.139439  

    Final Occupation by Irrep:
              A 
    DOCC [     9 ]

  Energy converged.

  @DF-RKS Final Energy:   -79.82518471258155

   => Energetics <=

    Nuclear Repulsion Energy =             42.2300796195126367
    One-Electron Energy =                -189.3152874309483309
    Two-Electron Energy =                  76.0519025796565984
    DFT Exchange-Correlation Energy =      -8.7900175578859869
    Empirical Dispersion Energy =          -0.0018619229164767
    VV10 Nonlocal Energy =                  0.0000000000000000
    Total Energy =                        -79.8251847125815459



Properties will be evaluated at   0.000000,   0.000000,   0.000000 [a0]

Properties computed using the SCF density matrix

  Nuclear Dipole Moment: [e a0]
     X:    -0.0000      Y:    -0.0030      Z:     0.0000

  Electronic Dipole Moment: [e a0]
     X:     0.0000      Y:     0.0032      Z:    -0.0000

  Dipole Moment: [e a0]
     X:     0.0000      Y:     0.0003      Z:     0.0000     Total:     0.0003

  Dipole Moment: [D]
     X:     0.0000      Y:     0.0006      Z:     0.0000     Total:     0.0006


*** tstop() called on d-snes-l-dc-01 at Mon Sep 24 10:16:43 2018
Module time:
	user time   =       9.45 seconds =       0.16 minutes
	system time =       0.04 seconds =       0.00 minutes
	total time  =          5 seconds =       0.08 minutes
Total time:
	user time   =      62.88 seconds =       1.05 minutes
	system time =       0.51 seconds =       0.01 minutes
	total time  =         33 seconds =       0.55 minutes

*** tstart() called on d-snes-l-dc-01
*** at Mon Sep 24 10:16:43 2018


         ------------------------------------------------------------
                                   SCF GRAD                          
                          Rob Parrish, Justin Turney,                
                       Andy Simmonett, and Alex Sokolov              
         ------------------------------------------------------------

  ==> Geometry <==

    Molecular point group: c1
    Full point group: C1

    Geometry (in Angstrom), charge = 0, multiplicity = 1:

       Center              X                  Y                   Z               Mass       
    ------------   -----------------  -----------------  -----------------  -----------------
         C           -0.762374103750     0.020583967247    -0.025346315759    12.000000000000
         C            0.762376184107    -0.020318470126     0.025343028749    12.000000000000
         H           -1.195437161744    -0.079769395658     0.973569375513     1.007825032070
         H           -1.121041698680     0.961031954436    -0.449057527231     1.007825032070
         H           -1.160045725110    -0.792685530248    -0.639954064165     1.007825032070
         H            1.159959503653     0.791559084088     0.640050777981     1.007825032070
         H            1.195482844939     0.078839012714    -0.973533664904     1.007825032070
         H            1.121057466484    -0.962136354065     0.448964240669     1.007825032070

  Nuclear repulsion =   42.230079619512637

  ==> Basis Set <==

  Basis Set: 6-311++G(D,P)
    Blend: 6-311++G(D,P)
    Number of shells: 50
    Number of basis function: 86
    Number of Cartesian functions: 88
    Spherical Harmonics?: true
    Max angular momentum: 2

  ==> DFJKGrad: Density-Fitted SCF Gradients <==

    Gradient:                    1
    J tasked:                  Yes
    K tasked:                  Yes
    wK tasked:                 Yes
    Omega:               2.000E-01
    OpenMP threads:              2
    Integrals threads:           2
    Memory (MB):              1430
    Schwarz Cutoff:          0E+00
    Fitting Condition:       1E-12

   => Auxiliary Basis Set <=

  Basis Set: (6-311++G(D,P) AUX)
    Blend: AUG-CC-PVTZ-JKFIT
    Number of shells: 144
    Number of basis function: 484
    Number of Cartesian functions: 592
    Spherical Harmonics?: true
    Max angular momentum: 4

  ==> DFT Potential <==

   => Composite Functional: WB97X-D <= 

    wB97X-D Hyb-GGA Exchange-Correlation Functional

    J.-D. Chai and M. Head-Gordon, Phys. Chem. Chem. Phys. 10, 6615 (2008)

    Deriv               =              1
    GGA                 =           TRUE
    Meta                =          FALSE

    Exchange Hybrid     =           TRUE
    MP2 Hybrid          =          FALSE

   => Exchange-Correlation Functionals <=

    1.0000   wB97D range-separated functional

   => Exact (HF) Exchange <=

    0.7780            HF,LR [omega = 0.2000]
    0.2220               HF 

   => Molecular Quadrature <=

    Radial Scheme       =       TREUTLER
    Pruning Scheme      =           FLAT
    Nuclear Scheme      =       TREUTLER

    BS radius alpha     =              1
    Pruning alpha       =              1
    Radial Points       =             75
    Spherical Points    =            302
    Total Points        =         181200
    Total Blocks        =           1424
    Max Points          =            256
    Max Functions       =             86


  -Total Gradient:
     Atom            X                  Y                   Z
    ------   -----------------  -----------------  -----------------
       1        0.000032178719     0.001480938872     0.000046496841
       2       -0.000011674082    -0.000236059290    -0.000045410886
       3       -0.000005529713    -0.000105993928     0.000085834369
       4        0.000169675008    -0.000611611881     0.000281846996
       5       -0.000178811989    -0.000527923013    -0.000259938017
       6       -0.000067431869     0.000031656021    -0.000024502563
       7       -0.000024570669    -0.000022096793    -0.000025907643
       8        0.000087223806    -0.000009674723    -0.000056532803


*** tstop() called on d-snes-l-dc-01 at Mon Sep 24 10:16:45 2018
Module time:
	user time   =       3.78 seconds =       0.06 minutes
	system time =       0.02 seconds =       0.00 minutes
	total time  =          2 seconds =       0.03 minutes
Total time:
	user time   =      66.66 seconds =       1.11 minutes
	system time =       0.53 seconds =       0.01 minutes
	total time  =         35 seconds =       0.58 minutes

  //>>>>>>>>>>>>>>>>>>>>>>>>>>>>>>>>>>>//
  //    Loading displacement 5 of 37   //
  //<<<<<<<<<<<<<<<<<<<<<<<<<<<<<<<<<<<//
gradient() will perform analytic gradient computation.

*** tstart() called on d-snes-l-dc-01
*** at Mon Sep 24 10:16:45 2018

   => Loading Basis Set <=

    Name: 6-311++G(D,P)
    Role: ORBITAL
    Keyword: BASIS
    atoms 1-2 entry C          line   119 file /home/b6056633/anaconda3/share/psi4/basis/6-311ppg_d_p_.gbs 
    atoms 3-8 entry H          line    42 file /home/b6056633/anaconda3/share/psi4/basis/6-311ppg_d_p_.gbs 


         ---------------------------------------------------------
                                   SCF
            by Justin Turney, Rob Parrish, Andy Simmonett
                             and Daniel Smith
                              RKS Reference
                        2 Threads,   1907 MiB Core
         ---------------------------------------------------------

  ==> Geometry <==

    Molecular point group: c1
    Full point group: C1

    Geometry (in Angstrom), charge = 0, multiplicity = 1:

       Center              X                  Y                   Z               Mass       
    ------------   -----------------  -----------------  -----------------  -----------------
         C           -0.762374103750     0.020149219166    -0.025780926137    12.000000000000
         C            0.762377026217    -0.020153887762     0.025507601591    12.000000000000
         H           -1.195003681221    -0.078680075605     0.974684300600     1.007825032070
         H           -1.120793760271     0.962126186710    -0.447948777340     1.007825032070
         H           -1.160743627321    -0.791566362750    -0.638876899498     1.007825032070
         H            1.160654068918     0.791512224399     0.640045412694     1.007825032070
         H            1.195046093141     0.078821938037    -0.973576849103     1.007825032070
         H            1.120806109437    -0.962158322621     0.448927241197     1.007825032070

  Running in c1 symmetry.

  Rotational constants: A =      2.68657  B =      0.66772  C =      0.66770 [cm^-1]
  Rotational constants: A =  80541.38450  B =  20017.76812  C =  20017.00640 [MHz]
  Nuclear repulsion =   42.230044587683444

  Charge       = 0
  Multiplicity = 1
  Electrons    = 18
  Nalpha       = 9
  Nbeta        = 9

  ==> Algorithm <==

  SCF Algorithm Type is DF.
  DIIS enabled.
  MOM disabled.
  Fractional occupation disabled.
  Guess Type is SAD.
  Energy threshold   = 1.00e-08
  Density threshold  = 1.00e-08
  Integral threshold = 0.00e+00

  ==> Primary Basis <==

  Basis Set: 6-311++G(D,P)
    Blend: 6-311++G(D,P)
[...]
                                   SCF GRAD                          
                          Rob Parrish, Justin Turney,                
                       Andy Simmonett, and Alex Sokolov              
         ------------------------------------------------------------

  ==> Geometry <==

    Molecular point group: c1
    Full point group: C1

    Geometry (in Angstrom), charge = 0, multiplicity = 1:

       Center              X                  Y                   Z               Mass       
    ------------   -----------------  -----------------  -----------------  -----------------
         C           -0.762374103750     0.020149219166    -0.025346143542    12.000000000000
         C            0.762372896250    -0.020153780834     0.025342856458    12.000000000000
         H           -1.195469103750    -0.078667780834     0.973567856458     1.007825032070
         H           -1.120567103750     0.962120219166    -0.449042143542     1.007825032070
         H           -1.160424103750    -0.791574780834    -0.639967143542     1.007825032070
         H            1.160350896250     0.791520219166     0.640063856458     1.007825032070
         H            1.195607048712     0.079908812203    -0.975034744215     1.007825032070
         H            1.120516743788    -0.963252373870     0.450451457131     1.007825032070

  Nuclear repulsion =   42.220047226014323

  ==> Basis Set <==

  Basis Set: 6-311++G(D,P)
    Blend: 6-311++G(D,P)
    Number of shells: 50
    Number of basis function: 86
    Number of Cartesian functions: 88
    Spherical Harmonics?: true
    Max angular momentum: 2

  ==> DFJKGrad: Density-Fitted SCF Gradients <==

    Gradient:                    1
    J tasked:                  Yes
    K tasked:                  Yes
    wK tasked:                 Yes
    Omega:               2.000E-01
    OpenMP threads:              2
    Integrals threads:           2
    Memory (MB):              1430
    Schwarz Cutoff:          0E+00
    Fitting Condition:       1E-12

   => Auxiliary Basis Set <=

  Basis Set: (6-311++G(D,P) AUX)
    Blend: AUG-CC-PVTZ-JKFIT
    Number of shells: 144
    Number of basis function: 484
    Number of Cartesian functions: 592
    Spherical Harmonics?: true
    Max angular momentum: 4

  ==> DFT Potential <==

   => Composite Functional: WB97X-D <= 

    wB97X-D Hyb-GGA Exchange-Correlation Functional

    J.-D. Chai and M. Head-Gordon, Phys. Chem. Chem. Phys. 10, 6615 (2008)

    Deriv               =              1
    GGA                 =           TRUE
    Meta                =          FALSE

    Exchange Hybrid     =           TRUE
    MP2 Hybrid          =          FALSE

   => Exchange-Correlation Functionals <=

    1.0000   wB97D range-separated functional

   => Exact (HF) Exchange <=

    0.7780            HF,LR [omega = 0.2000]
    0.2220               HF 

   => Molecular Quadrature <=

    Radial Scheme       =       TREUTLER
    Pruning Scheme      =           FLAT
    Nuclear Scheme      =       TREUTLER

    BS radius alpha     =              1
    Pruning alpha       =              1
    Radial Points       =             75
    Spherical Points    =            302
    Total Points        =         181200
    Total Blocks        =           1423
    Max Points          =            256
    Max Functions       =             86


  -Total Gradient:
     Atom            X                  Y                   Z
    ------   -----------------  -----------------  -----------------
       1       -0.000005031933     0.000020494051     0.000014368184
       2       -0.000512038229     0.000554757967     0.000381924345
       3       -0.000026162995     0.000006186355    -0.000017335282
       4        0.000002444051     0.000027428092     0.000065629917
       5        0.000015243344     0.000006355258    -0.000006479935
       6       -0.000016150185    -0.000016642020    -0.000002054277
       7        0.000325500627     0.000250381452    -0.000909868456
       8        0.000216422732    -0.000848515072     0.000473778304


*** tstop() called on d-snes-l-dc-01 at Mon Sep 24 10:25:08 2018
Module time:
	user time   =       3.69 seconds =       0.06 minutes
	system time =       0.02 seconds =       0.00 minutes
	total time  =          2 seconds =       0.03 minutes
Total time:
	user time   =    1038.00 seconds =      17.30 minutes
	system time =       6.38 seconds =       0.11 minutes
	total time  =        538 seconds =       8.97 minutes

  //>>>>>>>>>>>>>>>>>>>>>>>>>>>>>>>>>>>//
  //   Loading displacement 37 of 37   //
  //<<<<<<<<<<<<<<<<<<<<<<<<<<<<<<<<<<<//
gradient() will perform analytic gradient computation.

*** tstart() called on d-snes-l-dc-01
*** at Mon Sep 24 10:25:08 2018

   => Loading Basis Set <=

    Name: 6-311++G(D,P)
    Role: ORBITAL
    Keyword: BASIS
    atoms 1-2 entry C          line   119 file /home/b6056633/anaconda3/share/psi4/basis/6-311ppg_d_p_.gbs 
    atoms 3-8 entry H          line    42 file /home/b6056633/anaconda3/share/psi4/basis/6-311ppg_d_p_.gbs 


         ---------------------------------------------------------
                                   SCF
            by Justin Turney, Rob Parrish, Andy Simmonett
                             and Daniel Smith
                              RKS Reference
                        2 Threads,   1907 MiB Core
         ---------------------------------------------------------

  ==> Geometry <==

    Molecular point group: c1
    Full point group: C1

    Geometry (in Angstrom), charge = 0, multiplicity = 1:

       Center              X                  Y                   Z               Mass       
    ------------   -----------------  -----------------  -----------------  -----------------
         C           -0.762374103750     0.020149219166    -0.025346143542    12.000000000000
         C            0.762372896250    -0.020153780834     0.025342856458    12.000000000000
         H           -1.195469103750    -0.078667780834     0.973567856458     1.007825032070
         H           -1.120567103750     0.962120219166    -0.449042143542     1.007825032070
         H           -1.160424103750    -0.791574780834    -0.639967143542     1.007825032070
         H            1.160350896250     0.791520219166     0.640063856458     1.007825032070
         H            1.195527896250     0.078809219166    -0.973532143542     1.007825032070
         H            1.120595896250    -0.962152780834     0.448948856458     1.007825032070

  Running in c1 symmetry.

  Rotational constants: A =      2.68657  B =      0.66773  C =      0.66771 [cm^-1]
  Rotational constants: A =  80541.47127  B =  20018.12239  C =  20017.35615 [MHz]
  Nuclear repulsion =   42.230217376508314

  Charge       = 0
  Multiplicity = 1
  Electrons    = 18
  Nalpha       = 9
  Nbeta        = 9

  ==> Algorithm <==

  SCF Algorithm Type is DF.
  DIIS enabled.
  MOM disabled.
  Fractional occupation disabled.
  Guess Type is SAD.
  Energy threshold   = 1.00e-08
  Density threshold  = 1.00e-08
  Integral threshold = 0.00e+00

  ==> Primary Basis <==

  Basis Set: 6-311++G(D,P)
    Blend: 6-311++G(D,P)
    Number of shells: 50
    Number of basis function: 86
    Number of Cartesian functions: 88
    Spherical Harmonics?: true
    Max angular momentum: 2

  ==> DFT Potential <==

   => Composite Functional: WB97X-D <= 

    wB97X-D Hyb-GGA Exchange-Correlation Functional

    J.-D. Chai and M. Head-Gordon, Phys. Chem. Chem. Phys. 10, 6615 (2008)

    Deriv               =              1
    GGA                 =           TRUE
    Meta                =          FALSE

    Exchange Hybrid     =           TRUE
    MP2 Hybrid          =          FALSE

   => Exchange-Correlation Functionals <=

    1.0000   wB97D range-separated functional

   => Exact (HF) Exchange <=

    0.7780            HF,LR [omega = 0.2000]
    0.2220               HF 

   => Molecular Quadrature <=

    Radial Scheme       =       TREUTLER
    Pruning Scheme      =           FLAT
    Nuclear Scheme      =       TREUTLER

    BS radius alpha     =              1
    Pruning alpha       =              1
    Radial Points       =             75
    Spherical Points    =            302
    Total Points        =         181200
    Total Blocks        =           1422
    Max Points          =            256
    Max Functions       =             86

   => -CHG: Empirical Dispersion <=

    Chai and Head-Gordon Dispersion Correction
    Chai, J.-D.; Head-Gordon, M. (2010), J. Chem. Phys., 132: 6615-6620

        S6 =   1.000000E+00

   => Loading Basis Set <=

    Name: (6-311++G(D,P) AUX)
    Role: JKFIT
    Keyword: DF_BASIS_SCF
    atoms 1-2 entry C          line   162 file /home/b6056633/anaconda3/share/psi4/basis/aug-cc-pvtz-jkfit.gbs 
    atoms 3-8 entry H          line    70 file /home/b6056633/anaconda3/share/psi4/basis/aug-cc-pvtz-jkfit.gbs 

  ==> Pre-Iterations <==

   -------------------------------------------------------
    Irrep   Nso     Nmo     Nalpha   Nbeta   Ndocc  Nsocc
   -------------------------------------------------------
     A         86      86       0       0       0       0
   -------------------------------------------------------
    Total      86      86       9       9       9       0
   -------------------------------------------------------

  ==> Integral Setup <==

  ==> DiskDFJK: Density-Fitted J/K Matrices <==

    J tasked:                  Yes
    K tasked:                  Yes
    wK tasked:                 Yes
    Omega:               2.000E-01
    OpenMP threads:              2
    Integrals threads:           2
    Memory (MB):              1430
    Algorithm:                Core
    Integral Cache:           NONE
    Schwarz Cutoff:          1E-12
    Fitting Condition:       1E-12

   => Auxiliary Basis Set <=

  Basis Set: (6-311++G(D,P) AUX)
    Blend: AUG-CC-PVTZ-JKFIT
    Number of shells: 144
    Number of basis function: 484
    Number of Cartesian functions: 592
    Spherical Harmonics?: true
    Max angular momentum: 4

  Minimum eigenvalue in the overlap matrix is 1.4841914802E-04.
  Using Symmetric Orthogonalization.

  SCF Guess: Superposition of Atomic Densities via on-the-fly atomic UHF.

  ==> Iterations <==

                           Total Energy        Delta E     RMS |[F,P]|

   @DF-RKS iter   0:   -79.99007907976994   -7.99901e+01   3.69420e-02 
   @DF-RKS iter   1:   -79.73690060524193    2.53178e-01   6.27135e-03 
   @DF-RKS iter   2:   -79.77143980186852   -3.45392e-02   5.03027e-03 DIIS
   @DF-RKS iter   3:   -79.82502527776380   -5.35855e-02   1.82024e-04 DIIS
   @DF-RKS iter   4:   -79.82518031192816   -1.55034e-04   3.37292e-05 DIIS
   @DF-RKS iter   5:   -79.82518618697983   -5.87505e-06   5.37057e-06 DIIS
   @DF-RKS iter   6:   -79.82518641329645   -2.26317e-07   9.36816e-07 DIIS
   @DF-RKS iter   7:   -79.82518642036496   -7.06851e-09   1.23437e-07 DIIS
   @DF-RKS iter   8:   -79.82518642046627   -1.01309e-10   2.02774e-08 DIIS
   @DF-RKS iter   9:   -79.82518642046841   -2.14584e-12   4.40577e-09 DIIS

  ==> Post-Iterations <==

    Orbital Energies [Eh]
    ---------------------

    Doubly Occupied:                                                      

       1A    -10.268981     2A    -10.268754     3A     -0.852307  
       4A     -0.710360     5A     -0.521673     6A     -0.521626  
       7A     -0.451307     8A     -0.424465     9A     -0.424433  

    Virtual:                                                              

      10A      0.044706    11A      0.061722    12A      0.070997  
      13A      0.071002    14A      0.102201    15A      0.102202  
      16A      0.140173    17A      0.146997    18A      0.147002  
      19A      0.174466    20A      0.178520    21A      0.194978  
      22A      0.198512    23A      0.198513    24A      0.247018  
      25A      0.247056    26A      0.279840    27A      0.279854  
      28A      0.325730    29A      0.366838    30A      0.376105  
      31A      0.510587    32A      0.510653    33A      0.531978  
      34A      0.535113    35A      0.535169    36A      0.731989  
      37A      0.732023    38A      0.733899    39A      0.745210  
      40A      0.745219    41A      0.793166    42A      0.815438  
      43A      0.928123    44A      0.982530    45A      1.043257  
      46A      1.043331    47A      1.344947    48A      1.345027  
      49A      1.551685    50A      1.558859    51A      1.631141  
      52A      1.631249    53A      1.647128    54A      1.647185  
      55A      1.655515    56A      1.787179    57A      1.787191  
      58A      1.842272    59A      1.940150    60A      1.940236  
      61A      2.184561    62A      2.211005    63A      2.220143  
      64A      2.220189    65A      2.416843    66A      2.417011  
      67A      2.522512    68A      2.568243    69A      2.568456  
      70A      2.584580    71A      2.698421    72A      2.698459  
      73A      2.728940    74A      2.728998    75A      2.761597  
      76A      2.761649    77A      2.934306    78A      2.949323  
      79A      3.313380    80A      3.905496    81A      3.905971  
      82A      3.918953    83A      3.919202    84A      4.330495  
      85A     24.048919    86A     24.139429  

    Final Occupation by Irrep:
              A 
    DOCC [     9 ]

  Energy converged.

  @DF-RKS Final Energy:   -79.82518642046841

   => Energetics <=

    Nuclear Repulsion Energy =             42.2302173765083140
    One-Electron Energy =                -189.3155638876224884
    Two-Electron Energy =                  76.0520397518344708
    DFT Exchange-Correlation Energy =      -8.7900177471966572
    Empirical Dispersion Energy =          -0.0018619139920408
    VV10 Nonlocal Energy =                  0.0000000000000000
    Total Energy =                        -79.8251864204684125



Properties will be evaluated at   0.000000,   0.000000,   0.000000 [a0]

Properties computed using the SCF density matrix

  Nuclear Dipole Moment: [e a0]
     X:     0.0000      Y:     0.0001      Z:     0.0000

  Electronic Dipole Moment: [e a0]
     X:    -0.0000      Y:    -0.0000      Z:    -0.0000

  Dipole Moment: [e a0]
     X:     0.0000      Y:     0.0000      Z:     0.0000     Total:     0.0000

  Dipole Moment: [D]
     X:     0.0000      Y:     0.0000      Z:     0.0000     Total:     0.0000


*** tstop() called on d-snes-l-dc-01 at Mon Sep 24 10:25:13 2018
Module time:
	user time   =       9.40 seconds =       0.16 minutes
	system time =       0.04 seconds =       0.00 minutes
	total time  =          5 seconds =       0.08 minutes
Total time:
	user time   =    1047.42 seconds =      17.46 minutes
	system time =       6.42 seconds =       0.11 minutes
	total time  =        543 seconds =       9.05 minutes

*** tstart() called on d-snes-l-dc-01
*** at Mon Sep 24 10:25:13 2018


         ------------------------------------------------------------
                                   SCF GRAD                          
                          Rob Parrish, Justin Turney,                
                       Andy Simmonett, and Alex Sokolov              
         ------------------------------------------------------------

  ==> Geometry <==

    Molecular point group: c1
    Full point group: C1

    Geometry (in Angstrom), charge = 0, multiplicity = 1:

       Center              X                  Y                   Z               Mass       
    ------------   -----------------  -----------------  -----------------  -----------------
         C           -0.762374103750     0.020149219166    -0.025346143542    12.000000000000
         C            0.762372896250    -0.020153780834     0.025342856458    12.000000000000
         H           -1.195469103750    -0.078667780834     0.973567856458     1.007825032070
         H           -1.120567103750     0.962120219166    -0.449042143542     1.007825032070
         H           -1.160424103750    -0.791574780834    -0.639967143542     1.007825032070
         H            1.160350896250     0.791520219166     0.640063856458     1.007825032070
         H            1.195527896250     0.078809219166    -0.973532143542     1.007825032070
         H            1.120595896250    -0.962152780834     0.448948856458     1.007825032070

  Nuclear repulsion =   42.230217376508314

  ==> Basis Set <==

  Basis Set: 6-311++G(D,P)
    Blend: 6-311++G(D,P)
    Number of shells: 50
    Number of basis function: 86
    Number of Cartesian functions: 88
    Spherical Harmonics?: true
    Max angular momentum: 2

  ==> DFJKGrad: Density-Fitted SCF Gradients <==

    Gradient:                    1
    J tasked:                  Yes
    K tasked:                  Yes
    wK tasked:                 Yes
    Omega:               2.000E-01
    OpenMP threads:              2
    Integrals threads:           2
    Memory (MB):              1430
    Schwarz Cutoff:          0E+00
    Fitting Condition:       1E-12

   => Auxiliary Basis Set <=

  Basis Set: (6-311++G(D,P) AUX)
    Blend: AUG-CC-PVTZ-JKFIT
    Number of shells: 144
    Number of basis function: 484
    Number of Cartesian functions: 592
    Spherical Harmonics?: true
    Max angular momentum: 4

  ==> DFT Potential <==

   => Composite Functional: WB97X-D <= 

    wB97X-D Hyb-GGA Exchange-Correlation Functional

    J.-D. Chai and M. Head-Gordon, Phys. Chem. Chem. Phys. 10, 6615 (2008)

    Deriv               =              1
    GGA                 =           TRUE
    Meta                =          FALSE

    Exchange Hybrid     =           TRUE
    MP2 Hybrid          =          FALSE

   => Exchange-Correlation Functionals <=

    1.0000   wB97D range-separated functional

   => Exact (HF) Exchange <=

    0.7780            HF,LR [omega = 0.2000]
    0.2220               HF 

   => Molecular Quadrature <=

    Radial Scheme       =       TREUTLER
    Pruning Scheme      =           FLAT
    Nuclear Scheme      =       TREUTLER

    BS radius alpha     =              1
    Pruning alpha       =              1
    Radial Points       =             75
    Spherical Points    =            302
    Total Points        =         181200
    Total Blocks        =           1422
    Max Points          =            256
    Max Functions       =             86


  -Total Gradient:
     Atom            X                  Y                   Z
    ------   -----------------  -----------------  -----------------
       1        0.000012355559     0.000034374655     0.000050335825
       2       -0.000013287260    -0.000034436294    -0.000047264877
       3        0.000019972185     0.000024736493     0.000025733141
       4       -0.000008684162     0.000014115041     0.000055800945
       5       -0.000004929724    -0.000029439037     0.000024782513
       6        0.000000044948     0.000026799494    -0.000027713208
       7       -0.000015746330    -0.000022400015    -0.000024611588
       8        0.000010082870    -0.000013634463    -0.000056781781


*** tstop() called on d-snes-l-dc-01 at Mon Sep 24 10:25:14 2018
Module time:
	user time   =       3.80 seconds =       0.06 minutes
	system time =       0.02 seconds =       0.00 minutes
	total time  =          1 seconds =       0.02 minutes
Total time:
	user time   =    1051.22 seconds =      17.52 minutes
	system time =       6.44 seconds =       0.11 minutes
	total time  =        544 seconds =       9.07 minutes

-------------------------------------------------------------

  Computing second-derivative from gradients using projected, 
  symmetry-adapted, cartesian coordinates (fd_freq_1).

  37 gradients passed in, including the reference geometry.
  Generating complete list of displacements from unique ones.


-------------------------------------------------------------

    Psi4 stopped on: Monday, 24 September 2018 10:25AM
    Psi4 wall time for execution: 0:09:04.72

*** Psi4 exiting successfully. Buy a developer a beer!
