
    -----------------------------------------------------------------------
          Psi4: An Open-Source Ab Initio Electronic Structure Package
                               Psi4 1.2.1 release

                         Git: Rev {HEAD} 406f4de 


    R. M. Parrish, L. A. Burns, D. G. A. Smith, A. C. Simmonett,
    A. E. DePrince III, E. G. Hohenstein, U. Bozkaya, A. Yu. Sokolov,
    R. Di Remigio, R. M. Richard, J. F. Gonthier, A. M. James,
    H. R. McAlexander, A. Kumar, M. Saitow, X. Wang, B. P. Pritchard,
    P. Verma, H. F. Schaefer III, K. Patkowski, R. A. King, E. F. Valeev,
    F. A. Evangelista, J. M. Turney, T. D. Crawford, and C. D. Sherrill,
    J. Chem. Theory Comput. 13(7) pp 3185--3197 (2017).
    (doi: 10.1021/acs.jctc.7b00174)


                         Additional Contributions by
    P. Kraus, H. Kruse, M. H. Lechner, M. C. Schieber, and R. A. Shaw

    -----------------------------------------------------------------------


    Psi4 started on: Friday, 21 September 2018 05:43PM

    Process ID: 21879
    Host:       d-snes-l-dc-01
    PSIDATADIR: /home/b6056633/anaconda3/share/psi4
    Memory:     500.0 MiB
    Threads:    2
    
  ==> Input File <==

--------------------------------------------------------------------------
memory 2 GB

molecule methane {
 0 1 
 C    -0.000830   0.001644  -0.000431
 H    -0.675983   0.853982  -0.085819
 H    -0.394563  -0.833668  -0.580781
 H     0.083930  -0.291376   1.046762
 H     0.983044   0.277657  -0.381694
}

set basis 6-311++G(d,p)
frequency('wb97x-d')
set hessian_write on
hessian('wb97x-d')
--------------------------------------------------------------------------

  Memory set to   1.863 GiB by Python driver.
gradient() will perform analytic gradient computation.

*** tstart() called on d-snes-l-dc-01
*** at Fri Sep 21 17:43:48 2018

   => Loading Basis Set <=

    Name: 6-311++G(D,P)
    Role: ORBITAL
    Keyword: BASIS
    atoms 1   entry C          line   119 file /home/b6056633/anaconda3/share/psi4/basis/6-311ppg_d_p_.gbs 
    atoms 2-5 entry H          line    42 file /home/b6056633/anaconda3/share/psi4/basis/6-311ppg_d_p_.gbs 


         ---------------------------------------------------------
                                   SCF
            by Justin Turney, Rob Parrish, Andy Simmonett
                             and Daniel Smith
                              RKS Reference
                        2 Threads,   1907 MiB Core
         ---------------------------------------------------------

  ==> Geometry <==

    Molecular point group: c1
    Full point group: C1

    Geometry (in Angstrom), charge = 0, multiplicity = 1:

       Center              X                  Y                   Z               Mass       
    ------------   -----------------  -----------------  -----------------  -----------------
         C            0.000015842253    -0.000001194456    -0.000012070288    12.000000000000
         H           -0.675137157747     0.852336805544    -0.085400070288     1.007825032070
         H           -0.393717157747    -0.835313194456    -0.580362070288     1.007825032070
         H            0.084775842253    -0.293021194456     1.047180929712     1.007825032070
         H            0.983889842253     0.276011805544    -0.381275070288     1.007825032070

  Running in c1 symmetry.

  Rotational constants: A =      5.27333  B =      5.27276  C =      5.27235 [cm^-1]
  Rotational constants: A = 158090.45134  B = 158073.46927  C = 158061.02675 [MHz]
  Nuclear repulsion =   13.426927941629069

  Charge       = 0
  Multiplicity = 1
  Electrons    = 10
  Nalpha       = 5
  Nbeta        = 5

  ==> Algorithm <==

  SCF Algorithm Type is DF.
  DIIS enabled.
  MOM disabled.
  Fractional occupation disabled.
  Guess Type is SAD.
  Energy threshold   = 1.00e-08
  Density threshold  = 1.00e-08
  Integral threshold = 0.00e+00

  ==> Primary Basis <==

  Basis Set: 6-311++G(D,P)
    Blend: 6-311++G(D,P)
    Number of shells: 30
    Number of basis function: 50
    Number of Cartesian functions: 51
    Spherical Harmonics?: true
    Max angular momentum: 2

  ==> DFT Potential <==

   => Composite Functional: WB97X-D <= 

    wB97X-D Hyb-GGA Exchange-Correlation Functional

    J.-D. Chai and M. Head-Gordon, Phys. Chem. Chem. Phys. 10, 6615 (2008)

    Deriv               =              1
    GGA                 =           TRUE
    Meta                =          FALSE

    Exchange Hybrid     =           TRUE
    MP2 Hybrid          =          FALSE

   => Exchange-Correlation Functionals <=

    1.0000   wB97D range-separated functional

   => Exact (HF) Exchange <=

    0.7780            HF,LR [omega = 0.2000]
    0.2220               HF 

   => Molecular Quadrature <=

    Radial Scheme       =       TREUTLER
    Pruning Scheme      =           FLAT
    Nuclear Scheme      =       TREUTLER

    BS radius alpha     =              1
    Pruning alpha       =              1
    Radial Points       =             75
    Spherical Points    =            302
    Total Points        =         113250
    Total Blocks        =            920
    Max Points          =            256
    Max Functions       =             50

   => -CHG: Empirical Dispersion <=

    Chai and Head-Gordon Dispersion Correction
    Chai, J.-D.; Head-Gordon, M. (2010), J. Chem. Phys., 132: 6615-6620

        S6 =   1.000000E+00

   => Loading Basis Set <=

    Name: (6-311++G(D,P) AUX)
    Role: JKFIT
    Keyword: DF_BASIS_SCF
    atoms 1   entry C          line   162 file /home/b6056633/anaconda3/share/psi4/basis/aug-cc-pvtz-jkfit.gbs 
    atoms 2-5 entry H          line    70 file /home/b6056633/anaconda3/share/psi4/basis/aug-cc-pvtz-jkfit.gbs 

  ==> Pre-Iterations <==

   -------------------------------------------------------
    Irrep   Nso     Nmo     Nalpha   Nbeta   Ndocc  Nsocc
   -------------------------------------------------------
     A         50      50       0       0       0       0
   -------------------------------------------------------
    Total      50      50       5       5       5       0
   -------------------------------------------------------

  ==> Integral Setup <==

  ==> DiskDFJK: Density-Fitted J/K Matrices <==

    J tasked:                  Yes
    K tasked:                  Yes
    wK tasked:                 Yes
    Omega:               2.000E-01
    OpenMP threads:              2
    Integrals threads:           2
    Memory (MB):              1430
    Algorithm:                Core
    Integral Cache:           NONE
    Schwarz Cutoff:          1E-12
    Fitting Condition:       1E-12

   => Auxiliary Basis Set <=

  Basis Set: (6-311++G(D,P) AUX)
    Blend: AUG-CC-PVTZ-JKFIT
    Number of shells: 86
    Number of basis function: 288
    Number of Cartesian functions: 351
    Spherical Harmonics?: true
    Max angular momentum: 4

  Minimum eigenvalue in the overlap matrix is 1.3435101351E-03.
  Using Symmetric Orthogonalization.

  SCF Guess: Superposition of Atomic Densities via on-the-fly atomic UHF.

  ==> Iterations <==

                           Total Energy        Delta E     RMS |[F,P]|

   @DF-RKS iter   0:   -40.50670416078365   -4.05067e+01   4.43078e-02 
   @DF-RKS iter   1:   -40.48803457286266    1.86696e-02   6.12781e-03 
   @DF-RKS iter   2:   -40.50347126166195   -1.54367e-02   4.24666e-03 DIIS
   @DF-RKS iter   3:   -40.51547913364804   -1.20079e-02   2.47104e-04 DIIS
   @DF-RKS iter   4:   -40.51555961501662   -8.04814e-05   5.52601e-05 DIIS
   @DF-RKS iter   5:   -40.51556428814438   -4.67313e-06   1.04451e-05 DIIS
   @DF-RKS iter   6:   -40.51556448753855   -1.99394e-07   1.34234e-06 DIIS
   @DF-RKS iter   7:   -40.51556449229663   -4.75808e-09   1.42261e-07 DIIS
   @DF-RKS iter   8:   -40.51556449234184   -4.52047e-11   1.34387e-08 DIIS
   @DF-RKS iter   9:   -40.51556449234229   -4.47642e-13   2.11421e-09 DIIS

  ==> Post-Iterations <==

    Orbital Energies [Eh]
    ---------------------

    Doubly Occupied:                                                      

       1A    -10.262720     2A     -0.791781     3A     -0.476822  
       4A     -0.476793     5A     -0.476750  

    Virtual:                                                              

       6A      0.043292     7A      0.082214     8A      0.082217  
       9A      0.082221    10A      0.150059    11A      0.150065  
      12A      0.150071    13A      0.176949    14A      0.262488  
      15A      0.262493    16A      0.262500    17A      0.343814  
      18A      0.487670    19A      0.487697    20A      0.487717  
      21A      0.743232    22A      0.743236    23A      0.743248  
      24A      0.760853    25A      0.913348    26A      1.047264  
      27A      1.047330    28A      1.543288    29A      1.543309  
      30A      1.543350    31A      1.633978    32A      1.634058  
      33A      1.634076    34A      2.004906    35A      2.004960  
      36A      2.005018    37A      2.401717    38A      2.401810  
      39A      2.440736    40A      2.588530    41A      2.588602  
      42A      2.588672    43A      2.656111    44A      2.656180  
      45A      2.656254    46A      3.044369    47A      3.897375  
      48A      3.897561    49A      3.897751    50A     24.164138  

    Final Occupation by Irrep:
              A 
    DOCC [     5 ]

  Energy converged.

  @DF-RKS Final Energy:   -40.51556449234229

   => Energetics <=

    Nuclear Repulsion Energy =             13.4269279416290690
    One-Electron Energy =                 -79.8404223625368417
    Two-Electron Energy =                  30.4921508567402775
    DFT Exchange-Correlation Energy =      -4.5938220001405377
    Empirical Dispersion Energy =          -0.0003989280342514
    VV10 Nonlocal Energy =                  0.0000000000000000
    Total Energy =                        -40.5155644923422713



Properties will be evaluated at   0.000000,   0.000000,   0.000000 [a0]

Properties computed using the SCF density matrix

  Nuclear Dipole Moment: [e a0]
     X:    -0.0002      Y:     0.0000      Z:     0.0001

  Electronic Dipole Moment: [e a0]
     X:     0.0001      Y:    -0.0000      Z:    -0.0001

  Dipole Moment: [e a0]
     X:    -0.0000      Y:    -0.0000      Z:     0.0000     Total:     0.0001

  Dipole Moment: [D]
     X:    -0.0001      Y:    -0.0000      Z:     0.0000     Total:     0.0001


*** tstop() called on d-snes-l-dc-01 at Fri Sep 21 17:43:50 2018
Module time:
	user time   =       3.52 seconds =       0.06 minutes
	system time =       0.04 seconds =       0.00 minutes
	total time  =          2 seconds =       0.03 minutes
Total time:
	user time   =       3.52 seconds =       0.06 minutes
	system time =       0.04 seconds =       0.00 minutes
	total time  =          2 seconds =       0.03 minutes

*** tstart() called on d-snes-l-dc-01
*** at Fri Sep 21 17:43:50 2018


         ------------------------------------------------------------
                                   SCF GRAD                          
                          Rob Parrish, Justin Turney,                
                       Andy Simmonett, and Alex Sokolov              
         ------------------------------------------------------------

  ==> Geometry <==

    Molecular point group: c1
    Full point group: C1

    Geometry (in Angstrom), charge = 0, multiplicity = 1:

       Center              X                  Y                   Z               Mass       
    ------------   -----------------  -----------------  -----------------  -----------------
         C            0.000015842253    -0.000001194456    -0.000012070288    12.000000000000
         H           -0.675137157747     0.852336805544    -0.085400070288     1.007825032070
         H           -0.393717157747    -0.835313194456    -0.580362070288     1.007825032070
         H            0.084775842253    -0.293021194456     1.047180929712     1.007825032070
         H            0.983889842253     0.276011805544    -0.381275070288     1.007825032070

  Nuclear repulsion =   13.426927941629069

  ==> Basis Set <==

  Basis Set: 6-311++G(D,P)
    Blend: 6-311++G(D,P)
    Number of shells: 30
    Number of basis function: 50
    Number of Cartesian functions: 51
    Spherical Harmonics?: true
    Max angular momentum: 2

  ==> DFJKGrad: Density-Fitted SCF Gradients <==

    Gradient:                    1
    J tasked:                  Yes
    K tasked:                  Yes
    wK tasked:                 Yes
    Omega:               2.000E-01
    OpenMP threads:              2
    Integrals threads:           2
    Memory (MB):              1430
    Schwarz Cutoff:          0E+00
    Fitting Condition:       1E-12

   => Auxiliary Basis Set <=

  Basis Set: (6-311++G(D,P) AUX)
    Blend: AUG-CC-PVTZ-JKFIT
    Number of shells: 86
    Number of basis function: 288
    Number of Cartesian functions: 351
    Spherical Harmonics?: true
    Max angular momentum: 4

  ==> DFT Potential <==

   => Composite Functional: WB97X-D <= 

    wB97X-D Hyb-GGA Exchange-Correlation Functional

    J.-D. Chai and M. Head-Gordon, Phys. Chem. Chem. Phys. 10, 6615 (2008)

    Deriv               =              1
    GGA                 =           TRUE
    Meta                =          FALSE

    Exchange Hybrid     =           TRUE
    MP2 Hybrid          =          FALSE

   => Exchange-Correlation Functionals <=

    1.0000   wB97D range-separated functional

   => Exact (HF) Exchange <=

    0.7780            HF,LR [omega = 0.2000]
    0.2220               HF 

   => Molecular Quadrature <=

    Radial Scheme       =       TREUTLER
    Pruning Scheme      =           FLAT
    Nuclear Scheme      =       TREUTLER

    BS radius alpha     =              1
    Pruning alpha       =              1
    Radial Points       =             75
    Spherical Points    =            302
    Total Points        =         113250
    Total Blocks        =            920
    Max Points          =            256
    Max Functions       =             50


  -Total Gradient:
     Atom            X                  Y                   Z
    ------   -----------------  -----------------  -----------------
       1        0.000018802359     0.000029388915    -0.000006547022
       2       -0.000022924097    -0.000001082567     0.000001536315
       3       -0.000061856683    -0.000023254536     0.000016155956
       4        0.000021890368     0.000014187345     0.000041796621
       5        0.000012715789     0.000013890920     0.000007086361


*** tstop() called on d-snes-l-dc-01 at Fri Sep 21 17:43:51 2018
Module time:
	user time   =       1.24 seconds =       0.02 minutes
	system time =       0.02 seconds =       0.00 minutes
	total time  =          1 seconds =       0.02 minutes
Total time:
	user time   =       4.77 seconds =       0.08 minutes
	system time =       0.06 seconds =       0.00 minutes
	total time  =          3 seconds =       0.05 minutes

  Based on options and gradient (rms=2.48E-05), recommend projecting translations and projecting rotations.
hessian() will perform frequency computation by finite difference of analytic gradients.

-------------------------------------------------------------

  Using finite-differences of gradients to determine vibrational frequencies and 
  normal modes.  Resulting frequencies are only valid at stationary points.
	Generating geometries for use with 3-point formula.
	Displacement size will be 5.00e-03.
	Number of atoms is 5.
	Number of irreps is 1.
	Number of SALCS is 9.
	Translations projected? 1. Rotations projected? 1.
	Index of salcs per irrep:
	 1 :  0  1  2  3  4  5  6  7  8 
	Number of SALC's per irrep:
		 Irrep 1: 9
	Number of geometries (including reference) is 19.
	Number of displacements per irrep:
	  Irrep 1: 18

  //>>>>>>>>>>>>>>>>>>>>>>>>>>>>>>>>>>>//
  //    Loading displacement 1 of 19   //
  //<<<<<<<<<<<<<<<<<<<<<<<<<<<<<<<<<<<//
gradient() will perform analytic gradient computation.

*** tstart() called on d-snes-l-dc-01
*** at Fri Sep 21 17:43:51 2018

   => Loading Basis Set <=

    Name: 6-311++G(D,P)
    Role: ORBITAL
    Keyword: BASIS
    atoms 1   entry C          line   119 file /home/b6056633/anaconda3/share/psi4/basis/6-311ppg_d_p_.gbs 
    atoms 2-5 entry H          line    42 file /home/b6056633/anaconda3/share/psi4/basis/6-311ppg_d_p_.gbs 


         ---------------------------------------------------------
                                   SCF
            by Justin Turney, Rob Parrish, Andy Simmonett
                             and Daniel Smith
                              RKS Reference
                        2 Threads,   1907 MiB Core
         ---------------------------------------------------------

  ==> Geometry <==

    Molecular point group: c1
    Full point group: C1

    Geometry (in Angstrom), charge = 0, multiplicity = 1:

       Center              X                  Y                   Z               Mass       
    ------------   -----------------  -----------------  -----------------  -----------------
         C           -0.000367175325    -0.000001194455    -0.000012070287    12.000000000000
         H           -0.673997026502     0.852336800933    -0.085400116882     1.007825032070
         H           -0.392576980818    -0.835313197147    -0.580362097455     1.007825032070
         H            0.085915903162    -0.293021193872     1.047180935564     1.007825032070
         H            0.985029997852     0.276011812263    -0.381275002391     1.007825032070

  Running in c1 symmetry.

  Rotational constants: A =      5.27332  B =      5.27275  C =      5.27234 [cm^-1]
  Rotational constants: A = 158090.21733  B = 158073.19334  C = 158060.90167 [MHz]
  Nuclear repulsion =   13.426928708602913

  Charge       = 0
  Multiplicity = 1
  Electrons    = 10
  Nalpha       = 5
  Nbeta        = 5

  ==> Algorithm <==

  SCF Algorithm Type is DF.
  DIIS enabled.
  MOM disabled.
  Fractional occupation disabled.
  Guess Type is SAD.
  Energy threshold   = 1.00e-08
  Density threshold  = 1.00e-08
  Integral threshold = 0.00e+00

  ==> Primary Basis <==

  Basis Set: 6-311++G(D,P)
    Blend: 6-311++G(D,P)
    Number of shells: 30
    Number of basis function: 50
    Number of Cartesian functions: 51
    Spherical Harmonics?: true
    Max angular momentum: 2

  ==> DFT Potential <==

   => Composite Functional: WB97X-D <= 

    wB97X-D Hyb-GGA Exchange-Correlation Functional

    J.-D. Chai and M. Head-Gordon, Phys. Chem. Chem. Phys. 10, 6615 (2008)

    Deriv               =              1
    GGA                 =           TRUE
    Meta                =          FALSE

    Exchange Hybrid     =           TRUE
    MP2 Hybrid          =          FALSE

   => Exchange-Correlation Functionals <=

    1.0000   wB97D range-separated functional

   => Exact (HF) Exchange <=

    0.7780            HF,LR [omega = 0.2000]
    0.2220               HF 

   => Molecular Quadrature <=

    Radial Scheme       =       TREUTLER
    Pruning Scheme      =           FLAT
    Nuclear Scheme      =       TREUTLER

    BS radius alpha     =              1
    Pruning alpha       =              1
    Radial Points       =             75
    Spherical Points    =            302
    Total Points        =         113250
    Total Blocks        =            930
    Max Points          =            256
    Max Functions       =             50

   => -CHG: Empirical Dispersion <=

    Chai and Head-Gordon Dispersion Correction
    Chai, J.-D.; Head-Gordon, M. (2010), J. Chem. Phys., 132: 6615-6620

        S6 =   1.000000E+00

   => Loading Basis Set <=

    Name: (6-311++G(D,P) AUX)
    Role: JKFIT
    Keyword: DF_BASIS_SCF
    atoms 1   entry C          line   162 file /home/b6056633/anaconda3/share/psi4/basis/aug-cc-pvtz-jkfit.gbs 
    atoms 2-5 entry H          line    70 file /home/b6056633/anaconda3/share/psi4/basis/aug-cc-pvtz-jkfit.gbs 

  ==> Pre-Iterations <==

   -------------------------------------------------------
    Irrep   Nso     Nmo     Nalpha   Nbeta   Ndocc  Nsocc
   -------------------------------------------------------
     A         50      50       0       0       0       0
   -------------------------------------------------------
    Total      50      50       5       5       5       0
   -------------------------------------------------------

  ==> Integral Setup <==

  ==> DiskDFJK: Density-Fitted J/K Matrices <==

    J tasked:                  Yes
    K tasked:                  Yes
    wK tasked:                 Yes
    Omega:               2.000E-01
    OpenMP threads:              2
    Integrals threads:           2
    Memory (MB):              1430
    Algorithm:                Core
    Integral Cache:           NONE
    Schwarz Cutoff:          1E-12
    Fitting Condition:       1E-12

   => Auxiliary Basis Set <=

  Basis Set: (6-311++G(D,P) AUX)
    Blend: AUG-CC-PVTZ-JKFIT
    Number of shells: 86
    Number of basis function: 288
    Number of Cartesian functions: 351
    Spherical Harmonics?: true
    Max angular momentum: 4

  Minimum eigenvalue in the overlap matrix is 1.3435105276E-03.
  Using Symmetric Orthogonalization.

  SCF Guess: Superposition of Atomic Densities via on-the-fly atomic UHF.

  ==> Iterations <==

                           Total Energy        Delta E     RMS |[F,P]|

   @DF-RKS iter   0:   -40.50678917459054   -4.05068e+01   4.29001e-02 
   @DF-RKS iter   1:   -40.48771393704878    1.90752e-02   5.65883e-03 
   @DF-RKS iter   2:   -40.50343591999823   -1.57220e-02   4.17905e-03 DIIS
   @DF-RKS iter   3:   -40.51547579819805   -1.20399e-02   2.78404e-04 DIIS
   @DF-RKS iter   4:   -40.51555702985668   -8.12317e-05   5.56874e-05 DIIS
   @DF-RKS iter   5:   -40.51556188690241   -4.85705e-06   1.06507e-05 DIIS
   @DF-RKS iter   6:   -40.51556209547332   -2.08571e-07   1.54405e-06 DIIS
   @DF-RKS iter   7:   -40.51556210057952   -5.10619e-09   1.43033e-07 DIIS
   @DF-RKS iter   8:   -40.51556210062618   -4.66613e-11   1.36818e-08 DIIS
   @DF-RKS iter   9:   -40.51556210062670   -5.25802e-13   2.07067e-09 DIIS

  ==> Post-Iterations <==

    Orbital Energies [Eh]
    ---------------------

    Doubly Occupied:                                                      

       1A    -10.262720     2A     -0.791782     3A     -0.477159  
       4A     -0.476838     5A     -0.476368  

    Virtual:                                                              

       6A      0.043292     7A      0.082190     8A      0.082214  
       9A      0.082248    10A      0.150012    11A      0.150070  
      12A      0.150113    13A      0.176949    14A      0.262253  
      15A      0.262535    16A      0.262691    17A      0.343814  
      18A      0.487548    19A      0.487704    20A      0.487833  
      21A      0.742908    22A      0.743299    23A      0.743507  
      24A      0.760855    25A      0.913348    26A      1.047266  
      27A      1.047328    28A      1.543195    29A      1.543343  
      30A      1.543403    31A      1.633913    32A      1.634043  
      33A      1.634159    34A      2.004913    35A      2.004959  
      36A      2.005004    37A      2.401700    38A      2.401808  
      39A      2.440716    40A      2.588426    41A      2.588624  
      42A      2.588767    43A      2.654929    44A      2.656465  
      45A      2.657184    46A      3.044367    47A      3.895372  
      48A      3.897822    49A      3.899487    50A     24.164140  

    Final Occupation by Irrep:
              A 
    DOCC [     5 ]

  Energy converged.

  @DF-RKS Final Energy:   -40.51556210062670

   => Energetics <=

    Nuclear Repulsion Energy =             13.4269287086029134
    One-Electron Energy =                 -79.8404173561579853
    Two-Electron Energy =                  30.4921471487089022
    DFT Exchange-Correlation Energy =      -4.5938216736880877
    Empirical Dispersion Energy =          -0.0003989280924514
    VV10 Nonlocal Energy =                  0.0000000000000000
    Total Energy =                        -40.5155621006267097



Properties will be evaluated at   0.000000,   0.000000,   0.000000 [a0]

Properties computed using the SCF density matrix

  Nuclear Dipole Moment: [e a0]
     X:     0.0041      Y:     0.0000      Z:     0.0001

  Electronic Dipole Moment: [e a0]
     X:    -0.0041      Y:    -0.0000      Z:    -0.0001

  Dipole Moment: [e a0]
     X:     0.0000      Y:    -0.0000      Z:     0.0000     Total:     0.0000

  Dipole Moment: [D]
     X:     0.0001      Y:    -0.0000      Z:     0.0000     Total:     0.0001


*** tstop() called on d-snes-l-dc-01 at Fri Sep 21 17:43:52 2018
Module time:
	user time   =       3.65 seconds =       0.06 minutes
	system time =       0.04 seconds =       0.00 minutes
	total time  =          1 seconds =       0.02 minutes
Total time:
	user time   =       8.44 seconds =       0.14 minutes
	system time =       0.10 seconds =       0.00 minutes
	total time  =          4 seconds =       0.07 minutes

*** tstart() called on d-snes-l-dc-01
*** at Fri Sep 21 17:43:52 2018


         ------------------------------------------------------------
                                   SCF GRAD                          
                          Rob Parrish, Justin Turney,                
                       Andy Simmonett, and Alex Sokolov              
         ------------------------------------------------------------

  ==> Geometry <==

    Molecular point group: c1
    Full point group: C1

    Geometry (in Angstrom), charge = 0, multiplicity = 1:

       Center              X                  Y                   Z               Mass       
    ------------   -----------------  -----------------  -----------------  -----------------
         C           -0.000367175325    -0.000001194455    -0.000012070287    12.000000000000
         H           -0.673997026502     0.852336800933    -0.085400116882     1.007825032070
         H           -0.392576980818    -0.835313197147    -0.580362097455     1.007825032070
         H            0.085915903162    -0.293021193872     1.047180935564     1.007825032070
         H            0.985029997852     0.276011812263    -0.381275002391     1.007825032070

  Nuclear repulsion =   13.426928708602913

  ==> Basis Set <==

  Basis Set: 6-311++G(D,P)
    Blend: 6-311++G(D,P)
    Number of shells: 30
    Number of basis function: 50
    Number of Cartesian functions: 51
    Spherical Harmonics?: true
    Max angular momentum: 2

  ==> DFJKGrad: Density-Fitted SCF Gradients <==

    Gradient:                    1
    J tasked:                  Yes
    K tasked:                  Yes
    wK tasked:                 Yes
    Omega:               2.000E-01
    OpenMP threads:              2
    Integrals threads:           2
    Memory (MB):              1430
    Schwarz Cutoff:          0E+00
    Fitting Condition:       1E-12

   => Auxiliary Basis Set <=

  Basis Set: (6-311++G(D,P) AUX)
    Blend: AUG-CC-PVTZ-JKFIT
    Number of shells: 86
    Number of basis function: 288
    Number of Cartesian functions: 351
    Spherical Harmonics?: true
    Max angular momentum: 4

  ==> DFT Potential <==

   => Composite Functional: WB97X-D <= 

    wB97X-D Hyb-GGA Exchange-Correlation Functional

    J.-D. Chai and M. Head-Gordon, Phys. Chem. Chem. Phys. 10, 6615 (2008)

    Deriv               =              1
    GGA                 =           TRUE
    Meta                =          FALSE

    Exchange Hybrid     =           TRUE
    MP2 Hybrid          =          FALSE

   => Exchange-Correlation Functionals <=

    1.0000   wB97D range-separated functional

   => Exact (HF) Exchange <=

    0.7780            HF,LR [omega = 0.2000]
    0.2220               HF 

   => Molecular Quadrature <=

    Radial Scheme       =       TREUTLER
    Pruning Scheme      =           FLAT
    Nuclear Scheme      =       TREUTLER

    BS radius alpha     =              1
    Pruning alpha       =              1
    Radial Points       =             75
    Spherical Points    =            302
    Total Points        =         113250
    Total Blocks        =            930
    Max Points          =            256
    Max Functions       =             50


  -Total Gradient:
     Atom            X                  Y                   Z
    ------   -----------------  -----------------  -----------------
       1       -0.001560855090     0.000027666666    -0.000015201375
       2        0.000414692095    -0.000385157328     0.000033017809
       3        0.000171528909     0.000198299893     0.000167147254
       4        0.000157604348    -0.000005420967     0.000099254394
       5        0.000788910766     0.000188884602    -0.000242766056


*** tstop() called on d-snes-l-dc-01 at Fri Sep 21 17:43:53 2018
Module time:
	user time   =       1.15 seconds =       0.02 minutes
	system time =       0.02 seconds =       0.00 minutes
	total time  =          1 seconds =       0.02 minutes
Total time:
	user time   =       9.59 seconds =       0.16 minutes
	system time =       0.12 seconds =       0.00 minutes
	total time  =          5 seconds =       0.08 minutes

  //>>>>>>>>>>>>>>>>>>>>>>>>>>>>>>>>>>>//
  //    Loading displacement 2 of 19   //
  //<<<<<<<<<<<<<<<<<<<<<<<<<<<<<<<<<<<//
gradient() will perform analytic gradient computation.

*** tstart() called on d-snes-l-dc-01
*** at Fri Sep 21 17:43:53 2018

   => Loading Basis Set <=

    Name: 6-311++G(D,P)
    Role: ORBITAL
    Keyword: BASIS
    atoms 1   entry C          line   119 file /home/b6056633/anaconda3/share/psi4/basis/6-311ppg_d_p_.gbs 
    atoms 2-5 entry H          line    42 file /home/b6056633/anaconda3/share/psi4/basis/6-311ppg_d_p_.gbs 


         ---------------------------------------------------------
                                   SCF
            by Justin Turney, Rob Parrish, Andy Simmonett
                             and Daniel Smith
                              RKS Reference
                        2 Threads,   1907 MiB Core
         ---------------------------------------------------------

  ==> Geometry <==

    Molecular point group: c1
    Full point group: C1

    Geometry (in Angstrom), charge = 0, multiplicity = 1:

       Center              X                  Y                   Z               Mass       
    ------------   -----------------  -----------------  -----------------  -----------------
         C            0.000398859831    -0.000001194456    -0.000012070289    12.000000000000
         H           -0.676277288992     0.852336810156    -0.085400023694     1.007825032070
         H           -0.394857334677    -0.835313191764    -0.580362043121     1.007825032070
         H            0.083635781343    -0.293021195039     1.047180923861     1.007825032070
         H            0.982749686653     0.276011798825    -0.381275138184     1.007825032070

  Running in c1 symmetry.

  Rotational constants: A =      5.27332  B =      5.27275  C =      5.27234 [cm^-1]
  Rotational constants: A = 158090.18503  B = 158073.15633  C = 158060.85644 [MHz]
  Nuclear repulsion =   13.426927174828062

  Charge       = 0
  Multiplicity = 1
  Electrons    = 10
  Nalpha       = 5
  Nbeta        = 5

  ==> Algorithm <==

  SCF Algorithm Type is DF.
  DIIS enabled.
  MOM disabled.
  Fractional occupation disabled.
  Guess Type is SAD.
  Energy threshold   = 1.00e-08
  Density threshold  = 1.00e-08
  Integral threshold = 0.00e+00

  ==> Primary Basis <==

  Basis Set: 6-311++G(D,P)
    Blend: 6-311++G(D,P)
    Number of shells: 30
    Number of basis function: 50
    Number of Cartesian functions: 51
    Spherical Harmonics?: true
    Max angular momentum: 2

  ==> DFT Potential <==

   => Composite Functional: WB97X-D <= 

    wB97X-D Hyb-GGA Exchange-Correlation Functional

    J.-D. Chai and M. Head-Gordon, Phys. Chem. Chem. Phys. 10, 6615 (2008)

    Deriv               =              1
    GGA                 =           TRUE
    Meta                =          FALSE

    Exchange Hybrid     =           TRUE
    MP2 Hybrid          =          FALSE

   => Exchange-Correlation Functionals <=

    1.0000   wB97D range-separated functional

   => Exact (HF) Exchange <=

    0.7780            HF,LR [omega = 0.2000]
    0.2220               HF 

   => Molecular Quadrature <=

    Radial Scheme       =       TREUTLER
    Pruning Scheme      =           FLAT
    Nuclear Scheme      =       TREUTLER

    BS radius alpha     =              1
    Pruning alpha       =              1
    Radial Points       =             75
    Spherical Points    =            302
    Total Points        =         113250
    Total Blocks        =            937
    Max Points          =            256
    Max Functions       =             50

   => -CHG: Empirical Dispersion <=

    Chai and Head-Gordon Dispersion Correction
    Chai, J.-D.; Head-Gordon, M. (2010), J. Chem. Phys., 132: 6615-6620

        S6 =   1.000000E+00

   => Loading Basis Set <=

    Name: (6-311++G(D,P) AUX)
    Role: JKFIT
    Keyword: DF_BASIS_SCF
    atoms 1   entry C          line   162 file /home/b6056633/anaconda3/share/psi4/basis/aug-cc-pvtz-jkfit.gbs 
    atoms 2-5 entry H          line    70 file /home/b6056633/anaconda3/share/psi4/basis/aug-cc-pvtz-jkfit.gbs 

  ==> Pre-Iterations <==

   -------------------------------------------------------
    Irrep   Nso     Nmo     Nalpha   Nbeta   Ndocc  Nsocc
   -------------------------------------------------------
     A         50      50       0       0       0       0
   -------------------------------------------------------
    Total      50      50       5       5       5       0
   -------------------------------------------------------

  ==> Integral Setup <==

  ==> DiskDFJK: Density-Fitted J/K Matrices <==

    J tasked:                  Yes
    K tasked:                  Yes
    wK tasked:                 Yes
    Omega:               2.000E-01
    OpenMP threads:              2
    Integrals threads:           2
    Memory (MB):              1430
    Algorithm:                Core
    Integral Cache:           NONE
    Schwarz Cutoff:          1E-12
    Fitting Condition:       1E-12

   => Auxiliary Basis Set <=

  Basis Set: (6-311++G(D,P) AUX)
    Blend: AUG-CC-PVTZ-JKFIT
    Number of shells: 86
    Number of basis function: 288
    Number of Cartesian functions: 351
    Spherical Harmonics?: true
    Max angular momentum: 4

  Minimum eigenvalue in the overlap matrix is 1.3435108836E-03.
  Using Symmetric Orthogonalization.

  SCF Guess: Superposition of Atomic Densities via on-the-fly atomic UHF.

  ==> Iterations <==

                           Total Energy        Delta E     RMS |[F,P]|

   @DF-RKS iter   0:   -40.50648533975207   -4.05065e+01   4.35954e-02 
   @DF-RKS iter   1:   -40.48899497237419    1.74904e-02   5.55960e-03 
   @DF-RKS iter   2:   -40.50345340183863   -1.44584e-02   4.49493e-03 DIIS
   @DF-RKS iter   3:   -40.51547988233374   -1.20265e-02   2.43603e-04 DIIS
   @DF-RKS iter   4:   -40.51555766639439   -7.77841e-05   5.14142e-05 DIIS
   @DF-RKS iter   5:   -40.51556167392754   -4.00753e-06   9.67863e-06 DIIS
   @DF-RKS iter   6:   -40.51556184146850   -1.67541e-07   1.34515e-06 DIIS
   @DF-RKS iter   7:   -40.51556184523123   -3.76273e-09   1.42652e-07 DIIS
   @DF-RKS iter   8:   -40.51556184527119   -3.99609e-11   1.28485e-08 DIIS
   @DF-RKS iter   9:   -40.51556184527161   -4.12115e-13   1.98938e-09 DIIS

  ==> Post-Iterations <==

    Orbital Energies [Eh]
    ---------------------

    Doubly Occupied:                                                      

       1A    -10.262721     2A     -0.791782     3A     -0.477258  
       4A     -0.476671     5A     -0.476436  

    Virtual:                                                              

       6A      0.043292     7A      0.082182     8A      0.082227  
       9A      0.082244    10A      0.150021    11A      0.150049  
      12A      0.150125    13A      0.176949    14A      0.262294  
      15A      0.262443    16A      0.262742    17A      0.343814  
      18A      0.487570    19A      0.487643    20A      0.487871  
      21A      0.742966    22A      0.743175    23A      0.743574  
      24A      0.760854    25A      0.913348    26A      1.047267  
      27A      1.047327    28A      1.543171    29A      1.543285  
      30A      1.543483    31A      1.633977    32A      1.633999  
      33A      1.634141    34A      2.004873    35A      2.004962  
      36A      2.005040    37A      2.401697    38A      2.401806  
      39A      2.440716    40A      2.588396    41A      2.588694  
      42A      2.588730    43A      2.655113    44A      2.655986  
      45A      2.657481    46A      3.044367    47A      3.895743  
      48A      3.896961    49A      3.899975    50A     24.164140  

    Final Occupation by Irrep:
              A 
    DOCC [     5 ]

  Energy converged.

  @DF-RKS Final Energy:   -40.51556184527161

   => Energetics <=

    Nuclear Repulsion Energy =             13.4269271748280623
    One-Electron Energy =                 -79.8404137048169815
    Two-Electron Energy =                  30.4921449997502840
    DFT Exchange-Correlation Energy =      -4.5938213869352307
    Empirical Dispersion Energy =          -0.0003989280977454
    VV10 Nonlocal Energy =                  0.0000000000000000
    Total Energy =                        -40.5155618452716126



Properties will be evaluated at   0.000000,   0.000000,   0.000000 [a0]

Properties computed using the SCF density matrix

  Nuclear Dipole Moment: [e a0]
     X:    -0.0045      Y:     0.0000      Z:     0.0001

  Electronic Dipole Moment: [e a0]
     X:     0.0043      Y:    -0.0000      Z:    -0.0001

  Dipole Moment: [e a0]
     X:    -0.0001      Y:    -0.0000      Z:     0.0000     Total:     0.0001

  Dipole Moment: [D]
     X:    -0.0003      Y:    -0.0000      Z:     0.0000     Total:     0.0003


*** tstop() called on d-snes-l-dc-01 at Fri Sep 21 17:43:55 2018
Module time:
	user time   =       3.71 seconds =       0.06 minutes
	system time =       0.00 seconds =       0.00 minutes
	total time  =          2 seconds =       0.03 minutes
Total time:
	user time   =      13.31 seconds =       0.22 minutes
	system time =       0.12 seconds =       0.00 minutes
	total time  =          7 seconds =       0.12 minutes

*** tstart() called on d-snes-l-dc-01
*** at Fri Sep 21 17:43:55 2018


         ------------------------------------------------------------
                                   SCF GRAD                          
                          Rob Parrish, Justin Turney,                
                       Andy Simmonett, and Alex Sokolov              
         ------------------------------------------------------------

  ==> Geometry <==

    Molecular point group: c1
    Full point group: C1

    Geometry (in Angstrom), charge = 0, multiplicity = 1:

       Center              X                  Y                   Z               Mass       
    ------------   -----------------  -----------------  -----------------  -----------------
         C            0.000398859831    -0.000001194456    -0.000012070289    12.000000000000
         H           -0.676277288992     0.852336810156    -0.085400023694     1.007825032070
         H           -0.394857334677    -0.835313191764    -0.580362043121     1.007825032070
         H            0.083635781343    -0.293021195039     1.047180923861     1.007825032070
         H            0.982749686653     0.276011798825    -0.381275138184     1.007825032070

  Nuclear repulsion =   13.426927174828062

  ==> Basis Set <==

  Basis Set: 6-311++G(D,P)
    Blend: 6-311++G(D,P)
    Number of shells: 30
    Number of basis function: 50
    Number of Cartesian functions: 51
    Spherical Harmonics?: true
    Max angular momentum: 2

  ==> DFJKGrad: Density-Fitted SCF Gradients <==

    Gradient:                    1
    J tasked:                  Yes
    K tasked:                  Yes
    wK tasked:                 Yes
    Omega:               2.000E-01
    OpenMP threads:              2
    Integrals threads:           2
    Memory (MB):              1430
    Schwarz Cutoff:          0E+00
    Fitting Condition:       1E-12

   => Auxiliary Basis Set <=

  Basis Set: (6-311++G(D,P) AUX)
    Blend: AUG-CC-PVTZ-JKFIT
    Number of shells: 86
    Number of basis function: 288
    Number of Cartesian functions: 351
    Spherical Harmonics?: true
    Max angular momentum: 4

  ==> DFT Potential <==

   => Composite Functional: WB97X-D <= 

    wB97X-D Hyb-GGA Exchange-Correlation Functional

    J.-D. Chai and M. Head-Gordon, Phys. Chem. Chem. Phys. 10, 6615 (2008)

    Deriv               =              1
    GGA                 =           TRUE
    Meta                =          FALSE

    Exchange Hybrid     =           TRUE
    MP2 Hybrid          =          FALSE

   => Exchange-Correlation Functionals <=

    1.0000   wB97D range-separated functional

   => Exact (HF) Exchange <=

    0.7780            HF,LR [omega = 0.2000]
    0.2220               HF 

   => Molecular Quadrature <=

    Radial Scheme       =       TREUTLER
    Pruning Scheme      =           FLAT
    Nuclear Scheme      =       TREUTLER

    BS radius alpha     =              1
    Pruning alpha       =              1
    Radial Points       =             75
    Spherical Points    =            302
    Total Points        =         113250
    Total Blocks        =            937
    Max Points          =            256
    Max Functions       =             50


  -Total Gradient:
     Atom            X                  Y                   Z
    ------   -----------------  -----------------  -----------------
       1        0.001607592089     0.000027641347    -0.000018617067
       2       -0.000454302878     0.000383552563    -0.000046433575
       3       -0.000298543867    -0.000238642119    -0.000138101542
       4       -0.000113000960     0.000028450221    -0.000018437055
       5       -0.000764410954    -0.000176261665     0.000257866421


*** tstop() called on d-snes-l-dc-01 at Fri Sep 21 17:43:56 2018
Module time:
	user time   =       1.15 seconds =       0.02 minutes
	system time =       0.03 seconds =       0.00 minutes
	total time  =          1 seconds =       0.02 minutes
Total time:
	user time   =      14.47 seconds =       0.24 minutes
	system time =       0.15 seconds =       0.00 minutes
	total time  =          8 seconds =       0.13 minutes

  //>>>>>>>>>>>>>>>>>>>>>>>>>>>>>>>>>>>//
  //    Loading displacement 3 of 19   //
  //<<<<<<<<<<<<<<<<<<<<<<<<<<<<<<<<<<<//
gradient() will perform analytic gradient computation.

*** tstart() called on d-snes-l-dc-01
*** at Fri Sep 21 17:43:56 2018

   => Loading Basis Set <=

    Name: 6-311++G(D,P)
    Role: ORBITAL
    Keyword: BASIS
    atoms 1   entry C          line   119 file /home/b6056633/anaconda3/share/psi4/basis/6-311ppg_d_p_.gbs 
    atoms 2-5 entry H          line    42 file /home/b6056633/anaconda3/share/psi4/basis/6-311ppg_d_p_.gbs 


         ---------------------------------------------------------
                                   SCF
            by Justin Turney, Rob Parrish, Andy Simmonett
                             and Daniel Smith
                              RKS Reference
                        2 Threads,   1907 MiB Core
         ---------------------------------------------------------

  ==> Geometry <==

    Molecular point group: c1
    Full point group: C1

    Geometry (in Angstrom), charge = 0, multiplicity = 1:

       Center              X                  Y                   Z               Mass       
    ------------   -----------------  -----------------  -----------------  -----------------
         C            0.000015842253    -0.000384212033    -0.000012070288    12.000000000000
         H           -0.675137234938     0.853476881469    -0.085400011477     1.007825032070
         H           -0.393717082098    -0.834173058893    -0.580362127923     1.007825032070
         H            0.084775868791    -0.291881127856     1.047180909494     1.007825032070
         H            0.983889817256     0.277152052133    -0.381275051244     1.007825032070

  Running in c1 symmetry.

  Rotational constants: A =      5.27332  B =      5.27276  C =      5.27234 [cm^-1]
  Rotational constants: A = 158090.26636  B = 158073.29689  C = 158060.68754 [MHz]
  Nuclear repulsion =   13.426927827638051

  Charge       = 0
  Multiplicity = 1
  Electrons    = 10
  Nalpha       = 5
  Nbeta        = 5

  ==> Algorithm <==

  SCF Algorithm Type is DF.
  DIIS enabled.
  MOM disabled.
  Fractional occupation disabled.
  Guess Type is SAD.
  Energy threshold   = 1.00e-08
  Density threshold  = 1.00e-08
  Integral threshold = 0.00e+00

  ==> Primary Basis <==

  Basis Set: 6-311++G(D,P)
    Blend: 6-311++G(D,P)
    Number of shells: 30
    Number of basis function: 50
    Number of Cartesian functions: 51
    Spherical Harmonics?: true
    Max angular momentum: 2

  ==> DFT Potential <==

   => Composite Functional: WB97X-D <= 

    wB97X-D Hyb-GGA Exchange-Correlation Functional

    J.-D. Chai and M. Head-Gordon, Phys. Chem. Chem. Phys. 10, 6615 (2008)

    Deriv               =              1
    GGA                 =           TRUE
    Meta                =          FALSE

    Exchange Hybrid     =           TRUE
    MP2 Hybrid          =          FALSE

   => Exchange-Correlation Functionals <=

    1.0000   wB97D range-separated functional

   => Exact (HF) Exchange <=

    0.7780            HF,LR [omega = 0.2000]
    0.2220               HF 

   => Molecular Quadrature <=

    Radial Scheme       =       TREUTLER
    Pruning Scheme      =           FLAT
    Nuclear Scheme      =       TREUTLER

    BS radius alpha     =              1
    Pruning alpha       =              1
    Radial Points       =             75
    Spherical Points    =            302
    Total Points        =         113250
    Total Blocks        =            925
    Max Points          =            256
    Max Functions       =             50

   => -CHG: Empirical Dispersion <=

    Chai and Head-Gordon Dispersion Correction
    Chai, J.-D.; Head-Gordon, M. (2010), J. Chem. Phys., 132: 6615-6620

        S6 =   1.000000E+00

   => Loading Basis Set <=

    Name: (6-311++G(D,P) AUX)
    Role: JKFIT
    Keyword: DF_BASIS_SCF
    atoms 1   entry C          line   162 file /home/b6056633/anaconda3/share/psi4/basis/aug-cc-pvtz-jkfit.gbs 
    atoms 2-5 entry H          line    70 file /home/b6056633/anaconda3/share/psi4/basis/aug-cc-pvtz-jkfit.gbs 

  ==> Pre-Iterations <==

   -------------------------------------------------------
    Irrep   Nso     Nmo     Nalpha   Nbeta   Ndocc  Nsocc
   -------------------------------------------------------
     A         50      50       0       0       0       0
   -------------------------------------------------------
    Total      50      50       5       5       5       0
   -------------------------------------------------------

  ==> Integral Setup <==

  ==> DiskDFJK: Density-Fitted J/K Matrices <==

    J tasked:                  Yes
    K tasked:                  Yes
    wK tasked:                 Yes
    Omega:               2.000E-01
    OpenMP threads:              2
    Integrals threads:           2
    Memory (MB):              1430
    Algorithm:                Core
    Integral Cache:           NONE
    Schwarz Cutoff:          1E-12
    Fitting Condition:       1E-12

   => Auxiliary Basis Set <=

  Basis Set: (6-311++G(D,P) AUX)
    Blend: AUG-CC-PVTZ-JKFIT
    Number of shells: 86
    Number of basis function: 288
    Number of Cartesian functions: 351
    Spherical Harmonics?: true
    Max angular momentum: 4

  Minimum eigenvalue in the overlap matrix is 1.3435107326E-03.
  Using Symmetric Orthogonalization.

  SCF Guess: Superposition of Atomic Densities via on-the-fly atomic UHF.

  ==> Iterations <==

                           Total Energy        Delta E     RMS |[F,P]|

   @DF-RKS iter   0:   -40.50632774127483   -4.05063e+01   3.43155e-02 
   @DF-RKS iter   1:   -40.48682972521840    1.94980e-02   5.39859e-03 
   @DF-RKS iter   2:   -40.50338177707246   -1.65521e-02   4.18964e-03 DIIS
   @DF-RKS iter   3:   -40.51547245560707   -1.20907e-02   2.75239e-04 DIIS
   @DF-RKS iter   4:   -40.51555625726255   -8.38017e-05   5.78292e-05 DIIS
   @DF-RKS iter   5:   -40.51556140743815   -5.15018e-06   1.23811e-05 DIIS
   @DF-RKS iter   6:   -40.51556163625413   -2.28816e-07   1.56974e-06 DIIS
   @DF-RKS iter   7:   -40.51556164222141   -5.96728e-09   1.54461e-07 DIIS
   @DF-RKS iter   8:   -40.51556164227106   -4.96456e-11   1.37779e-08 DIIS
   @DF-RKS iter   9:   -40.51556164227155   -4.90274e-13   2.61131e-09 DIIS

  ==> Post-Iterations <==

    Orbital Energies [Eh]
    ---------------------

    Doubly Occupied:                                                      

       1A    -10.262721     2A     -0.791782     3A     -0.477183  
       4A     -0.476820     5A     -0.476363  

    Virtual:                                                              

       6A      0.043292     7A      0.082188     8A      0.082214  
       9A      0.082250    10A      0.150010    11A      0.150071  
      12A      0.150114    13A      0.176949    14A      0.262266  
      15A      0.262498    16A      0.262715    17A      0.343814  
      18A      0.487536    19A      0.487715    20A      0.487833  
      21A      0.742933    22A      0.743238    23A      0.743542  
      24A      0.760854    25A      0.913348    26A      1.047261  
      27A      1.047331    28A      1.543181    29A      1.543318  
      30A      1.543439    31A      1.633946    32A      1.634054  
      33A      1.634117    34A      2.004883    35A      2.004967  
      36A      2.005024    37A      2.401714    38A      2.401789  
      39A      2.440715    40A      2.588465    41A      2.588551  
      42A      2.588801    43A      2.655028    44A      2.656162  
      45A      2.657386    46A      3.044366    47A      3.895350  
      48A      3.897728    49A      3.899601    50A     24.164140  

    Final Occupation by Irrep:
              A 
    DOCC [     5 ]

  Energy converged.

  @DF-RKS Final Energy:   -40.51556164227155

   => Energetics <=

    Nuclear Repulsion Energy =             13.4269278276380515
    One-Electron Energy =                 -79.8404132480528119
    Two-Electron Energy =                  30.4921436137564541
    DFT Exchange-Correlation Energy =      -4.5938209075181113
    Empirical Dispersion Energy =          -0.0003989280951330
    VV10 Nonlocal Energy =                  0.0000000000000000
    Total Energy =                        -40.5155616422715426



Properties will be evaluated at   0.000000,   0.000000,   0.000000 [a0]

Properties computed using the SCF density matrix

  Nuclear Dipole Moment: [e a0]
     X:    -0.0002      Y:     0.0043      Z:     0.0001

  Electronic Dipole Moment: [e a0]
     X:     0.0001      Y:    -0.0042      Z:    -0.0001

  Dipole Moment: [e a0]
     X:    -0.0001      Y:     0.0001      Z:     0.0000     Total:     0.0001

  Dipole Moment: [D]
     X:    -0.0001      Y:     0.0002      Z:     0.0001     Total:     0.0002


*** tstop() called on d-snes-l-dc-01 at Fri Sep 21 17:43:58 2018
Module time:
	user time   =       3.77 seconds =       0.06 minutes
	system time =       0.05 seconds =       0.00 minutes
	total time  =          2 seconds =       0.03 minutes
Total time:
	user time   =      18.26 seconds =       0.30 minutes
	system time =       0.20 seconds =       0.00 minutes
	total time  =         10 seconds =       0.17 minutes

*** tstart() called on d-snes-l-dc-01
*** at Fri Sep 21 17:43:58 2018


         ------------------------------------------------------------
                                   SCF GRAD                          
                          Rob Parrish, Justin Turney,                
                       Andy Simmonett, and Alex Sokolov              
         ------------------------------------------------------------

  ==> Geometry <==

    Molecular point group: c1
    Full point group: C1

    Geometry (in Angstrom), charge = 0, multiplicity = 1:

       Center              X                  Y                   Z               Mass       
    ------------   -----------------  -----------------  -----------------  -----------------
         C            0.000015842253    -0.000384212033    -0.000012070288    12.000000000000
         H           -0.675137234938     0.853476881469    -0.085400011477     1.007825032070
         H           -0.393717082098    -0.834173058893    -0.580362127923     1.007825032070
         H            0.084775868791    -0.291881127856     1.047180909494     1.007825032070
         H            0.983889817256     0.277152052133    -0.381275051244     1.007825032070

  Nuclear repulsion =   13.426927827638051

  ==> Basis Set <==

  Basis Set: 6-311++G(D,P)
    Blend: 6-311++G(D,P)
    Number of shells: 30
    Number of basis function: 50
    Number of Cartesian functions: 51
    Spherical Harmonics?: true
    Max angular momentum: 2

  ==> DFJKGrad: Density-Fitted SCF Gradients <==

    Gradient:                    1
    J tasked:                  Yes
    K tasked:                  Yes
    wK tasked:                 Yes
    Omega:               2.000E-01
    OpenMP threads:              2
    Integrals threads:           2
    Memory (MB):              1430
    Schwarz Cutoff:          0E+00
    Fitting Condition:       1E-12

   => Auxiliary Basis Set <=

  Basis Set: (6-311++G(D,P) AUX)
    Blend: AUG-CC-PVTZ-JKFIT
    Number of shells: 86
    Number of basis function: 288
    Number of Cartesian functions: 351
    Spherical Harmonics?: true
    Max angular momentum: 4

  ==> DFT Potential <==

   => Composite Functional: WB97X-D <= 

    wB97X-D Hyb-GGA Exchange-Correlation Functional

    J.-D. Chai and M. Head-Gordon, Phys. Chem. Chem. Phys. 10, 6615 (2008)

    Deriv               =              1
    GGA                 =           TRUE
    Meta                =          FALSE

    Exchange Hybrid     =           TRUE
    MP2 Hybrid          =          FALSE

   => Exchange-Correlation Functionals <=

    1.0000   wB97D range-separated functional

   => Exact (HF) Exchange <=

    0.7780            HF,LR [omega = 0.2000]
    0.2220               HF 

   => Molecular Quadrature <=

    Radial Scheme       =       TREUTLER
    Pruning Scheme      =           FLAT
    Nuclear Scheme      =       TREUTLER

    BS radius alpha     =              1
    Pruning alpha       =              1
    Radial Points       =             75
    Spherical Points    =            302
    Total Points        =         113250
    Total Blocks        =            925
    Max Points          =            256
    Max Functions       =             50


  -Total Gradient:
     Atom            X                  Y                   Z
    ------   -----------------  -----------------  -----------------
       1        0.000007393170    -0.001555314237    -0.000008093691
       2       -0.000408386278     0.000612908538    -0.000042288456
       3        0.000157545441     0.000577025188     0.000344815657
       4        0.000002278934     0.000200807342    -0.000164091720
       5        0.000191255105     0.000200968491    -0.000068332764


*** tstop() called on d-snes-l-dc-01 at Fri Sep 21 17:43:58 2018
Module time:
	user time   =       1.15 seconds =       0.02 minutes
	system time =       0.03 seconds =       0.00 minutes
	total time  =          0 seconds =       0.00 minutes
Total time:
	user time   =      19.41 seconds =       0.32 minutes
	system time =       0.23 seconds =       0.00 minutes
	total time  =         10 seconds =       0.17 minutes

  //>>>>>>>>>>>>>>>>>>>>>>>>>>>>>>>>>>>//
  //    Loading displacement 4 of 19   //
  //<<<<<<<<<<<<<<<<<<<<<<<<<<<<<<<<<<<//
gradient() will perform analytic gradient computation.

*** tstart() called on d-snes-l-dc-01
*** at Fri Sep 21 17:43:58 2018

   => Loading Basis Set <=

    Name: 6-311++G(D,P)
    Role: ORBITAL
    Keyword: BASIS
    atoms 1   entry C          line   119 file /home/b6056633/anaconda3/share/psi4/basis/6-311ppg_d_p_.gbs 
    atoms 2-5 entry H          line    42 file /home/b6056633/anaconda3/share/psi4/basis/6-311ppg_d_p_.gbs 


         ---------------------------------------------------------
                                   SCF
            by Justin Turney, Rob Parrish, Andy Simmonett
                             and Daniel Smith
                              RKS Reference
                        2 Threads,   1907 MiB Core
         ---------------------------------------------------------

  ==> Geometry <==

    Molecular point group: c1
    Full point group: C1

    Geometry (in Angstrom), charge = 0, multiplicity = 1:

       Center              X                  Y                   Z               Mass       
    ------------   -----------------  -----------------  -----------------  -----------------
         C            0.000015842253     0.000381823122    -0.000012070288    12.000000000000
         H           -0.675137080556     0.851196729620    -0.085400129098     1.007825032070
         H           -0.393717233397    -0.836453330019    -0.580362012653     1.007825032070
         H            0.084775815714    -0.294161261055     1.047180949930     1.007825032070
         H            0.983889867250     0.274871558956    -0.381275089331     1.007825032070

  Running in c1 symmetry.

  Rotational constants: A =      5.27332  B =      5.27276  C =      5.27234 [cm^-1]
  Rotational constants: A = 158090.30429  B = 158073.26575  C = 158060.68940 [MHz]
  Nuclear repulsion =   13.426928057871839

  Charge       = 0
  Multiplicity = 1
  Electrons    = 10
  Nalpha       = 5
  Nbeta        = 5

  ==> Algorithm <==

  SCF Algorithm Type is DF.
  DIIS enabled.
  MOM disabled.
  Fractional occupation disabled.
  Guess Type is SAD.
  Energy threshold   = 1.00e-08
  Density threshold  = 1.00e-08
  Integral threshold = 0.00e+00

  ==> Primary Basis <==

  Basis Set: 6-311++G(D,P)
    Blend: 6-311++G(D,P)
    Number of shells: 30
    Number of basis function: 50
    Number of Cartesian functions: 51
    Spherical Harmonics?: true
    Max angular momentum: 2

  ==> DFT Potential <==

   => Composite Functional: WB97X-D <= 

    wB97X-D Hyb-GGA Exchange-Correlation Functional

    J.-D. Chai and M. Head-Gordon, Phys. Chem. Chem. Phys. 10, 6615 (2008)

    Deriv               =              1
    GGA                 =           TRUE
    Meta                =          FALSE

    Exchange Hybrid     =           TRUE
    MP2 Hybrid          =          FALSE

   => Exchange-Correlation Functionals <=

    1.0000   wB97D range-separated functional

   => Exact (HF) Exchange <=

    0.7780            HF,LR [omega = 0.2000]
    0.2220               HF 

   => Molecular Quadrature <=

    Radial Scheme       =       TREUTLER
    Pruning Scheme      =           FLAT
    Nuclear Scheme      =       TREUTLER

    BS radius alpha     =              1
    Pruning alpha       =              1
    Radial Points       =             75
    Spherical Points    =            302
    Total Points        =         113250
    Total Blocks        =            922
    Max Points          =            256
    Max Functions       =             50

   => -CHG: Empirical Dispersion <=

    Chai and Head-Gordon Dispersion Correction
    Chai, J.-D.; Head-Gordon, M. (2010), J. Chem. Phys., 132: 6615-6620

        S6 =   1.000000E+00

   => Loading Basis Set <=

    Name: (6-311++G(D,P) AUX)
    Role: JKFIT
    Keyword: DF_BASIS_SCF
    atoms 1   entry C          line   162 file /home/b6056633/anaconda3/share/psi4/basis/aug-cc-pvtz-jkfit.gbs 
    atoms 2-5 entry H          line    70 file /home/b6056633/anaconda3/share/psi4/basis/aug-cc-pvtz-jkfit.gbs 

  ==> Pre-Iterations <==

   -------------------------------------------------------
    Irrep   Nso     Nmo     Nalpha   Nbeta   Ndocc  Nsocc
   -------------------------------------------------------
     A         50      50       0       0       0       0
   -------------------------------------------------------
    Total      50      50       5       5       5       0
   -------------------------------------------------------

  ==> Integral Setup <==

  ==> DiskDFJK: Density-Fitted J/K Matrices <==

    J tasked:                  Yes
    K tasked:                  Yes
    wK tasked:                 Yes
    Omega:               2.000E-01
    OpenMP threads:              2
    Integrals threads:           2
    Memory (MB):              1430
    Algorithm:                Core
    Integral Cache:           NONE
    Schwarz Cutoff:          1E-12
    Fitting Condition:       1E-12

   => Auxiliary Basis Set <=

  Basis Set: (6-311++G(D,P) AUX)
    Blend: AUG-CC-PVTZ-JKFIT
    Number of shells: 86
    Number of basis function: 288
    Number of Cartesian functions: 351
    Spherical Harmonics?: true
    Max angular momentum: 4

  Minimum eigenvalue in the overlap matrix is 1.3435106883E-03.
  Using Symmetric Orthogonalization.

  SCF Guess: Superposition of Atomic Densities via on-the-fly atomic UHF.

  ==> Iterations <==

                           Total Energy        Delta E     RMS |[F,P]|

   @DF-RKS iter   0:   -40.50657560494680   -4.05066e+01   4.85418e-02 
   @DF-RKS iter   1:   -40.48855339446640    1.80222e-02   5.68160e-03 
   @DF-RKS iter   2:   -40.50345710501060   -1.49037e-02   4.10355e-03 DIIS
   @DF-RKS iter   3:   -40.51547837699628   -1.20213e-02   2.76627e-04 DIIS
   @DF-RKS iter   4:   -40.51555729540624   -7.89184e-05   5.81513e-05 DIIS
   @DF-RKS iter   5:   -40.51556165314876   -4.35774e-06   9.59925e-06 DIIS
   @DF-RKS iter   6:   -40.51556183623286   -1.83084e-07   1.31578e-06 DIIS
   @DF-RKS iter   7:   -40.51556184046387   -4.23100e-09   1.35278e-07 DIIS
   @DF-RKS iter   8:   -40.51556184050663   -4.27676e-11   1.43940e-08 DIIS
   @DF-RKS iter   9:   -40.51556184050710   -4.68958e-13   1.93988e-09 DIIS

  ==> Post-Iterations <==

    Orbital Energies [Eh]
    ---------------------

    Doubly Occupied:                                                      

       1A    -10.262721     2A     -0.791782     3A     -0.477186  
       4A     -0.476812     5A     -0.476367  

    Virtual:                                                              

       6A      0.043292     7A      0.082189     8A      0.082215  
       9A      0.082249    10A      0.150010    11A      0.150070  
      12A      0.150115    13A      0.176949    14A      0.262267  
      15A      0.262493    16A      0.262719    17A      0.343814  
      18A      0.487537    19A      0.487712    20A      0.487835  
      21A      0.742933    22A      0.743232    23A      0.743549  
      24A      0.760854    25A      0.913348    26A      1.047261  
      27A      1.047331    28A      1.543178    29A      1.543308  
      30A      1.543453    31A      1.633914    32A      1.634049  
      33A      1.634153    34A      2.004905    35A      2.004936  
      36A      2.005032    37A      2.401715    38A      2.401789  
      39A      2.440716    40A      2.588466    41A      2.588550  
      42A      2.588802    43A      2.655054    44A      2.656136  
      45A      2.657387    46A      3.044366    47A      3.895376  
      48A      3.897693    49A      3.899611    50A     24.164140  

    Final Occupation by Irrep:
              A 
    DOCC [     5 ]

  Energy converged.

  @DF-RKS Final Energy:   -40.51556184050710

   => Energetics <=

    Nuclear Repulsion Energy =             13.4269280578718391
    One-Electron Energy =                 -79.8404145465594297
    Two-Electron Energy =                  30.4921448109358515
    DFT Exchange-Correlation Energy =      -4.5938212346602807
    Empirical Dispersion Energy =          -0.0003989280950748
    VV10 Nonlocal Energy =                  0.0000000000000000
    Total Energy =                        -40.5155618405070967



Properties will be evaluated at   0.000000,   0.000000,   0.000000 [a0]

Properties computed using the SCF density matrix

  Nuclear Dipole Moment: [e a0]
     X:    -0.0002      Y:    -0.0043      Z:     0.0001

  Electronic Dipole Moment: [e a0]
     X:     0.0001      Y:     0.0042      Z:    -0.0001

  Dipole Moment: [e a0]
     X:    -0.0001      Y:    -0.0001      Z:     0.0000     Total:     0.0001

  Dipole Moment: [D]
     X:    -0.0001      Y:    -0.0002      Z:     0.0001     Total:     0.0003


*** tstop() called on d-snes-l-dc-01 at Fri Sep 21 17:44:00 2018
Module time:
	user time   =       3.65 seconds =       0.06 minutes
	system time =       0.03 seconds =       0.00 minutes
	total time  =          2 seconds =       0.03 minutes
Total time:
	user time   =      23.08 seconds =       0.38 minutes
	system time =       0.26 seconds =       0.00 minutes
	total time  =         12 seconds =       0.20 minutes

*** tstart() called on d-snes-l-dc-01
*** at Fri Sep 21 17:44:00 2018


         ------------------------------------------------------------
                                   SCF GRAD                          
                          Rob Parrish, Justin Turney,                
                       Andy Simmonett, and Alex Sokolov              
         ------------------------------------------------------------

  ==> Geometry <==

    Molecular point group: c1
    Full point group: C1

    Geometry (in Angstrom), charge = 0, multiplicity = 1:

       Center              X                  Y                   Z               Mass       
    ------------   -----------------  -----------------  -----------------  -----------------
         C            0.000015842253     0.000381823122    -0.000012070288    12.000000000000
         H           -0.675137080556     0.851196729620    -0.085400129098     1.007825032070
         H           -0.393717233397    -0.836453330019    -0.580362012653     1.007825032070
         H            0.084775815714    -0.294161261055     1.047180949930     1.007825032070
         H            0.983889867250     0.274871558956    -0.381275089331     1.007825032070

  Nuclear repulsion =   13.426928057871839

  ==> Basis Set <==

  Basis Set: 6-311++G(D,P)
    Blend: 6-311++G(D,P)
    Number of shells: 30
    Number of basis function: 50
    Number of Cartesian functions: 51
    Spherical Harmonics?: true
    Max angular momentum: 2

  ==> DFJKGrad: Density-Fitted SCF Gradients <==

    Gradient:                    1
    J tasked:                  Yes
    K tasked:                  Yes
    wK tasked:                 Yes
    Omega:               2.000E-01
    OpenMP threads:              2
    Integrals threads:           2
    Memory (MB):              1430
    Schwarz Cutoff:          0E+00
    Fitting Condition:       1E-12

   => Auxiliary Basis Set <=

  Basis Set: (6-311++G(D,P) AUX)
    Blend: AUG-CC-PVTZ-JKFIT
    Number of shells: 86
    Number of basis function: 288
    Number of Cartesian functions: 351
    Spherical Harmonics?: true
    Max angular momentum: 4

  ==> DFT Potential <==

   => Composite Functional: WB97X-D <= 

    wB97X-D Hyb-GGA Exchange-Correlation Functional

    J.-D. Chai and M. Head-Gordon, Phys. Chem. Chem. Phys. 10, 6615 (2008)

    Deriv               =              1
    GGA                 =           TRUE
    Meta                =          FALSE

    Exchange Hybrid     =           TRUE
    MP2 Hybrid          =          FALSE

   => Exchange-Correlation Functionals <=

    1.0000   wB97D range-separated functional

   => Exact (HF) Exchange <=

    0.7780            HF,LR [omega = 0.2000]
    0.2220               HF 

   => Molecular Quadrature <=

    Radial Scheme       =       TREUTLER
    Pruning Scheme      =           FLAT
    Nuclear Scheme      =       TREUTLER

    BS radius alpha     =              1
    Pruning alpha       =              1
    Radial Points       =             75
    Spherical Points    =            302
    Total Points        =         113250
    Total Blocks        =            922
    Max Points          =            256
    Max Functions       =             50


  -Total Gradient:
     Atom            X                  Y                   Z
    ------   -----------------  -----------------  -----------------
       1        0.000008251731     0.001613806858    -0.000008044240
       2        0.000359992545    -0.000619175292     0.000054825930
       3       -0.000281041977    -0.000618319125    -0.000300765850
       4        0.000037139654    -0.000174756423     0.000246165890
       5       -0.000172361765    -0.000160363923     0.000070923308


*** tstop() called on d-snes-l-dc-01 at Fri Sep 21 17:44:01 2018
Module time:
	user time   =       1.18 seconds =       0.02 minutes
	system time =       0.02 seconds =       0.00 minutes
	total time  =          1 seconds =       0.02 minutes
Total time:
	user time   =      24.26 seconds =       0.40 minutes
	system time =       0.28 seconds =       0.00 minutes
	total time  =         13 seconds =       0.22 minutes

  //>>>>>>>>>>>>>>>>>>>>>>>>>>>>>>>>>>>//
  //    Loading displacement 5 of 19   //
  //<<<<<<<<<<<<<<<<<<<<<<<<<<<<<<<<<<<//
gradient() will perform analytic gradient computation.

*** tstart() called on d-snes-l-dc-01
*** at Fri Sep 21 17:44:01 2018

   => Loading Basis Set <=

    Name: 6-311++G(D,P)
    Role: ORBITAL
    Keyword: BASIS
    atoms 1   entry C          line   119 file /home/b6056633/anaconda3/share/psi4/basis/6-311ppg_d_p_.gbs 
    atoms 2-5 entry H          line    42 file /home/b6056633/anaconda3/share/psi4/basis/6-311ppg_d_p_.gbs 


         ---------------------------------------------------------
                                   SCF
            by Justin Turney, Rob Parrish, Andy Simmonett
                             and Daniel Smith
                              RKS Reference
                        2 Threads,   1907 MiB Core
         ---------------------------------------------------------

  ==> Geometry <==

    Molecular point group: c1
    Full point group: C1

    Geometry (in Angstrom), charge = 0, multiplicity = 1:

       Center              X                  Y                   Z               Mass       
    ------------   -----------------  -----------------  -----------------  -----------------
         C            0.000015842253    -0.000001194456    -0.000395087865    12.000000000000
         H           -0.675137150011     0.852336804959    -0.084260006088     1.007825032070
         H           -0.393717105175    -0.835313198423    -0.579221969067     1.007825032070
         H            0.084775747409    -0.293021187300     1.048321070567     1.007825032070
         H            0.983889876789     0.276011802942    -0.380134851884     1.007825032070

  Running in c1 symmetry.

  Rotational constants: A =      5.27332  B =      5.27276  C =      5.27234 [cm^-1]
  Rotational constants: A = 158090.16782  B = 158073.25373  C = 158060.78989 [MHz]
  Nuclear repulsion =   13.426927641138574

  Charge       = 0
  Multiplicity = 1
  Electrons    = 10
  Nalpha       = 5
  Nbeta        = 5

  ==> Algorithm <==

  SCF Algorithm Type is DF.
  DIIS enabled.
  MOM disabled.
  Fractional occupation disabled.
  Guess Type is SAD.
  Energy threshold   = 1.00e-08
  Density threshold  = 1.00e-08
  Integral threshold = 0.00e+00

  ==> Primary Basis <==

  Basis Set: 6-311++G(D,P)
    Blend: 6-311++G(D,P)
    Number of shells: 30
    Number of basis function: 50
    Number of Cartesian functions: 51
    Spherical Harmonics?: true
    Max angular momentum: 2

  ==> DFT Potential <==

   => Composite Functional: WB97X-D <= 

    wB97X-D Hyb-GGA Exchange-Correlation Functional

    J.-D. Chai and M. Head-Gordon, Phys. Chem. Chem. Phys. 10, 6615 (2008)

    Deriv               =              1
    GGA                 =           TRUE
    Meta                =          FALSE

    Exchange Hybrid     =           TRUE
    MP2 Hybrid          =          FALSE

   => Exchange-Correlation Functionals <=

    1.0000   wB97D range-separated functional

   => Exact (HF) Exchange <=

    0.7780            HF,LR [omega = 0.2000]
    0.2220               HF 

   => Molecular Quadrature <=

    Radial Scheme       =       TREUTLER
    Pruning Scheme      =           FLAT
    Nuclear Scheme      =       TREUTLER

    BS radius alpha     =              1
    Pruning alpha       =              1
    Radial Points       =             75
    Spherical Points    =            302
    Total Points        =         113250
    Total Blocks        =            926
    Max Points          =            256
    Max Functions       =             50

   => -CHG: Empirical Dispersion <=

    Chai and Head-Gordon Dispersion Correction
    Chai, J.-D.; Head-Gordon, M. (2010), J. Chem. Phys., 132: 6615-6620

        S6 =   1.000000E+00

   => Loading Basis Set <=

    Name: (6-311++G(D,P) AUX)
    Role: JKFIT
    Keyword: DF_BASIS_SCF
    atoms 1   entry C          line   162 file /home/b6056633/anaconda3/share/psi4/basis/aug-cc-pvtz-jkfit.gbs 
    atoms 2-5 entry H          line    70 file /home/b6056633/anaconda3/share/psi4/basis/aug-cc-pvtz-jkfit.gbs 

  ==> Pre-Iterations <==

   -------------------------------------------------------
    Irrep   Nso     Nmo     Nalpha   Nbeta   Ndocc  Nsocc
   -------------------------------------------------------
     A         50      50       0       0       0       0
   -------------------------------------------------------
    Total      50      50       5       5       5       0
   -------------------------------------------------------

  ==> Integral Setup <==

  ==> DiskDFJK: Density-Fitted J/K Matrices <==

    J tasked:                  Yes
    K tasked:                  Yes
    wK tasked:                 Yes
    Omega:               2.000E-01
    OpenMP threads:              2
    Integrals threads:           2
    Memory (MB):              1430
    Algorithm:                Core
    Integral Cache:           NONE
    Schwarz Cutoff:          1E-12
    Fitting Condition:       1E-12

   => Auxiliary Basis Set <=

  Basis Set: (6-311++G(D,P) AUX)
    Blend: AUG-CC-PVTZ-JKFIT
    Number of shells: 86
    Number of basis function: 288
    Number of Cartesian functions: 351
    Spherical Harmonics?: true
    Max angular momentum: 4

  Minimum eigenvalue in the overlap matrix is 1.3435107865E-03.
  Using Symmetric Orthogonalization.

  SCF Guess: Superposition of Atomic Densities via on-the-fly atomic UHF.

  ==> Iterations <==

                           Total Energy        Delta E     RMS |[F,P]|

   @DF-RKS iter   0:   -40.50663108396206   -4.05066e+01   4.50850e-02 
   @DF-RKS iter   1:   -40.49048959938538    1.61415e-02   5.36235e-03 
   @DF-RKS iter   2:   -40.50348249558809   -1.29929e-02   4.02938e-03 DIIS
   @DF-RKS iter   3:   -40.51548469298090   -1.20022e-02   2.04933e-04 DIIS
   @DF-RKS iter   4:   -40.51556037892333   -7.56859e-05   3.48031e-05 DIIS
   @DF-RKS iter   5:   -40.51556269593926   -2.31702e-06   7.75428e-06 DIIS
   @DF-RKS iter   6:   -40.51556278354638   -8.76071e-08   1.02297e-06 DIIS
   @DF-RKS iter   7:   -40.51556278565807   -2.11169e-09   1.06861e-07 DIIS
   @DF-RKS iter   8:   -40.51556278568688   -2.88125e-11   1.14147e-08 DIIS
   @DF-RKS iter   9:   -40.51556278568717   -2.91323e-13   1.41577e-09 DIIS

  ==> Post-Iterations <==

    Orbital Energies [Eh]
    ---------------------

    Doubly Occupied:                                                      

       1A    -10.262719     2A     -0.791781     3A     -0.477124  
       4A     -0.476922     5A     -0.476318  

    Virtual:                                                              

       6A      0.043292     7A      0.082192     8A      0.082208  
       9A      0.082253    10A      0.150005    11A      0.150081  
      12A      0.150108    13A      0.176949    14A      0.262235  
      15A      0.262571    16A      0.262674    17A      0.343814  
      18A      0.487524    19A      0.487743    20A      0.487819  
      21A      0.742886    22A      0.743345    23A      0.743483  
      24A      0.760855    25A      0.913348    26A      1.047265  
      27A      1.047332    28A      1.543157    29A      1.543351  
      30A      1.543434    31A      1.633940    32A      1.634061  
      33A      1.634115    34A      2.004883    35A      2.004953  
      36A      2.005039    37A      2.401704    38A      2.401799  
      39A      2.440716    40A      2.588445    41A      2.588569  
      42A      2.588807    43A      2.654847    44A      2.656600  
      45A      2.657137    46A      3.044367    47A      3.895129  
      48A      3.898239    49A      3.899314    50A     24.164142  

    Final Occupation by Irrep:
              A 
    DOCC [     5 ]

  Energy converged.

  @DF-RKS Final Energy:   -40.51556278568717

   => Energetics <=

    Nuclear Repulsion Energy =             13.4269276411385743
    One-Electron Energy =                 -79.8404193546206784
    Two-Electron Energy =                  30.4921504904976715
    DFT Exchange-Correlation Energy =      -4.5938226346046607
    Empirical Dispersion Energy =          -0.0003989280980782
    VV10 Nonlocal Energy =                  0.0000000000000000
    Total Energy =                        -40.5155627856871732



Properties will be evaluated at   0.000000,   0.000000,   0.000000 [a0]

Properties computed using the SCF density matrix

  Nuclear Dipole Moment: [e a0]
     X:    -0.0002      Y:     0.0000      Z:     0.0044

  Electronic Dipole Moment: [e a0]
     X:     0.0001      Y:    -0.0000      Z:    -0.0043

  Dipole Moment: [e a0]
     X:    -0.0000      Y:    -0.0000      Z:     0.0001     Total:     0.0001

  Dipole Moment: [D]
     X:    -0.0001      Y:    -0.0001      Z:     0.0003     Total:     0.0003


*** tstop() called on d-snes-l-dc-01 at Fri Sep 21 17:44:03 2018
Module time:
	user time   =       3.73 seconds =       0.06 minutes
	system time =       0.04 seconds =       0.00 minutes
	total time  =          2 seconds =       0.03 minutes
Total time:
	user time   =      28.01 seconds =       0.47 minutes
	system time =       0.32 seconds =       0.01 minutes
	total time  =         15 seconds =       0.25 minutes

*** tstart() called on d-snes-l-dc-01
*** at Fri Sep 21 17:44:03 2018


         ------------------------------------------------------------
                                   SCF GRAD                          
                          Rob Parrish, Justin Turney,                
                       Andy Simmonett, and Alex Sokolov              
         ------------------------------------------------------------

  ==> Geometry <==

    Molecular point group: c1
    Full point group: C1

    Geometry (in Angstrom), charge = 0, multiplicity = 1:

       Center              X                  Y                   Z               Mass       
    ------------   -----------------  -----------------  -----------------  -----------------
         C            0.000015842253    -0.000001194456    -0.000395087865    12.000000000000
         H           -0.675137150011     0.852336804959    -0.084260006088     1.007825032070
         H           -0.393717105175    -0.835313198423    -0.579221969067     1.007825032070
         H            0.084775747409    -0.293021187300     1.048321070567     1.007825032070
         H            0.983889876789     0.276011802942    -0.380134851884     1.007825032070

  Nuclear repulsion =   13.426927641138574

  ==> Basis Set <==

  Basis Set: 6-311++G(D,P)
    Blend: 6-311++G(D,P)
    Number of shells: 30
    Number of basis function: 50
    Number of Cartesian functions: 51
    Spherical Harmonics?: true
    Max angular momentum: 2

  ==> DFJKGrad: Density-Fitted SCF Gradients <==

    Gradient:                    1
    J tasked:                  Yes
    K tasked:                  Yes
    wK tasked:                 Yes
[...]
      33A      1.634763    34A      2.004859    35A      2.005254  
      36A      2.006381    37A      2.402639    38A      2.403247  
      39A      2.442100    40A      2.588021    41A      2.588764  
      42A      2.588851    43A      2.656740    44A      2.656825  
      45A      2.658236    46A      3.044106    47A      3.897751  
      48A      3.899631    49A      3.900654    50A     24.166638  

    Final Occupation by Irrep:
              A 
    DOCC [     5 ]

  Energy converged.

  @DF-RKS Final Energy:   -40.51554831180138

   => Energetics <=

    Nuclear Repulsion Energy =             13.4363042798248440
    One-Electron Energy =                 -79.8580037452883431
    Two-Electron Energy =                  30.5011915540242136
    DFT Exchange-Correlation Energy =      -4.5946430080409915
    Empirical Dispersion Energy =          -0.0003973923211006
    VV10 Nonlocal Energy =                  0.0000000000000000
    Total Energy =                        -40.5155483118013748



Properties will be evaluated at   0.000000,   0.000000,   0.000000 [a0]

Properties computed using the SCF density matrix

  Nuclear Dipole Moment: [e a0]
     X:    -0.0002      Y:     0.0000      Z:     0.0001

  Electronic Dipole Moment: [e a0]
     X:     0.0008      Y:     0.0000      Z:     0.0003

  Dipole Moment: [e a0]
     X:     0.0006      Y:     0.0000      Z:     0.0004     Total:     0.0007

  Dipole Moment: [D]
     X:     0.0015      Y:     0.0001      Z:     0.0011     Total:     0.0019


*** tstop() called on d-snes-l-dc-01 at Fri Sep 21 17:45:27 2018
Module time:
	user time   =       4.15 seconds =       0.07 minutes
	system time =       0.04 seconds =       0.00 minutes
	total time  =          2 seconds =       0.03 minutes
Total time:
	user time   =     190.06 seconds =       3.17 minutes
	system time =       1.99 seconds =       0.03 minutes
	total time  =         99 seconds =       1.65 minutes

*** tstart() called on d-snes-l-dc-01
*** at Fri Sep 21 17:45:27 2018


         ------------------------------------------------------------
                                   SCF GRAD                          
                          Rob Parrish, Justin Turney,                
                       Andy Simmonett, and Alex Sokolov              
         ------------------------------------------------------------

  ==> Geometry <==

    Molecular point group: c1
    Full point group: C1

    Geometry (in Angstrom), charge = 0, multiplicity = 1:

       Center              X                  Y                   Z               Mass       
    ------------   -----------------  -----------------  -----------------  -----------------
         C            0.000015842253    -0.000001194456    -0.000012070288    12.000000000000
         H           -0.675137157747     0.852336805544    -0.085400070288     1.007825032070
         H           -0.393717157747    -0.835313194456    -0.580362070288     1.007825032070
         H            0.085716571038    -0.292425824210     1.045686358749     1.007825032070
         H            0.982949113468     0.275416435299    -0.379780499324     1.007825032070

  Nuclear repulsion =   13.436304279824844

  ==> Basis Set <==

  Basis Set: 6-311++G(D,P)
    Blend: 6-311++G(D,P)
    Number of shells: 30
    Number of basis function: 50
    Number of Cartesian functions: 51
    Spherical Harmonics?: true
    Max angular momentum: 2

  ==> DFJKGrad: Density-Fitted SCF Gradients <==

    Gradient:                    1
    J tasked:                  Yes
    K tasked:                  Yes
    wK tasked:                 Yes
    Omega:               2.000E-01
    OpenMP threads:              2
    Integrals threads:           2
    Memory (MB):              1430
    Schwarz Cutoff:          0E+00
    Fitting Condition:       1E-12

   => Auxiliary Basis Set <=

  Basis Set: (6-311++G(D,P) AUX)
    Blend: AUG-CC-PVTZ-JKFIT
    Number of shells: 86
    Number of basis function: 288
    Number of Cartesian functions: 351
    Spherical Harmonics?: true
    Max angular momentum: 4

  ==> DFT Potential <==

   => Composite Functional: WB97X-D <= 

    wB97X-D Hyb-GGA Exchange-Correlation Functional

    J.-D. Chai and M. Head-Gordon, Phys. Chem. Chem. Phys. 10, 6615 (2008)

    Deriv               =              1
    GGA                 =           TRUE
    Meta                =          FALSE

    Exchange Hybrid     =           TRUE
    MP2 Hybrid          =          FALSE

   => Exchange-Correlation Functionals <=

    1.0000   wB97D range-separated functional

   => Exact (HF) Exchange <=

    0.7780            HF,LR [omega = 0.2000]
    0.2220               HF 

   => Molecular Quadrature <=

    Radial Scheme       =       TREUTLER
    Pruning Scheme      =           FLAT
    Nuclear Scheme      =       TREUTLER

    BS radius alpha     =              1
    Pruning alpha       =              1
    Radial Points       =             75
    Spherical Points    =            302
    Total Points        =         113250
    Total Blocks        =            917
    Max Points          =            256
    Max Functions       =             50


  -Total Gradient:
     Atom            X                  Y                   Z
    ------   -----------------  -----------------  -----------------
       1        0.000800023366     0.000040800840     0.000469983527
       2       -0.000004472559     0.000017266894    -0.000011436078
       3       -0.000039367010    -0.000024760980     0.000029669195
       4        0.000072049307     0.000349258356    -0.000934184993
       5       -0.000859624936    -0.000267174137     0.000508807344


*** tstop() called on d-snes-l-dc-01 at Fri Sep 21 17:45:28 2018
Module time:
	user time   =       1.20 seconds =       0.02 minutes
	system time =       0.01 seconds =       0.00 minutes
	total time  =          1 seconds =       0.02 minutes
Total time:
	user time   =     191.27 seconds =       3.19 minutes
	system time =       2.00 seconds =       0.03 minutes
	total time  =        100 seconds =       1.67 minutes

  //>>>>>>>>>>>>>>>>>>>>>>>>>>>>>>>>>>>//
  //   Loading displacement 19 of 19   //
  //<<<<<<<<<<<<<<<<<<<<<<<<<<<<<<<<<<<//
gradient() will perform analytic gradient computation.

*** tstart() called on d-snes-l-dc-01
*** at Fri Sep 21 17:45:28 2018

   => Loading Basis Set <=

    Name: 6-311++G(D,P)
    Role: ORBITAL
    Keyword: BASIS
    atoms 1   entry C          line   119 file /home/b6056633/anaconda3/share/psi4/basis/6-311ppg_d_p_.gbs 
    atoms 2-5 entry H          line    42 file /home/b6056633/anaconda3/share/psi4/basis/6-311ppg_d_p_.gbs 


         ---------------------------------------------------------
                                   SCF
            by Justin Turney, Rob Parrish, Andy Simmonett
                             and Daniel Smith
                              RKS Reference
                        2 Threads,   1907 MiB Core
         ---------------------------------------------------------

  ==> Geometry <==

    Molecular point group: c1
    Full point group: C1

    Geometry (in Angstrom), charge = 0, multiplicity = 1:

       Center              X                  Y                   Z               Mass       
    ------------   -----------------  -----------------  -----------------  -----------------
         C            0.000015842253    -0.000001194456    -0.000012070288    12.000000000000
         H           -0.675137157747     0.852336805544    -0.085400070288     1.007825032070
         H           -0.393717157747    -0.835313194456    -0.580362070288     1.007825032070
         H            0.084775842253    -0.293021194456     1.047180929712     1.007825032070
         H            0.983889842253     0.276011805544    -0.381275070288     1.007825032070

  Running in c1 symmetry.

  Rotational constants: A =      5.27333  B =      5.27276  C =      5.27235 [cm^-1]
  Rotational constants: A = 158090.45134  B = 158073.46927  C = 158061.02675 [MHz]
  Nuclear repulsion =   13.426927941629069

  Charge       = 0
  Multiplicity = 1
  Electrons    = 10
  Nalpha       = 5
  Nbeta        = 5

  ==> Algorithm <==

  SCF Algorithm Type is DF.
  DIIS enabled.
  MOM disabled.
  Fractional occupation disabled.
  Guess Type is SAD.
  Energy threshold   = 1.00e-08
  Density threshold  = 1.00e-08
  Integral threshold = 0.00e+00

  ==> Primary Basis <==

  Basis Set: 6-311++G(D,P)
    Blend: 6-311++G(D,P)
    Number of shells: 30
    Number of basis function: 50
    Number of Cartesian functions: 51
    Spherical Harmonics?: true
    Max angular momentum: 2

  ==> DFT Potential <==

   => Composite Functional: WB97X-D <= 

    wB97X-D Hyb-GGA Exchange-Correlation Functional

    J.-D. Chai and M. Head-Gordon, Phys. Chem. Chem. Phys. 10, 6615 (2008)

    Deriv               =              1
    GGA                 =           TRUE
    Meta                =          FALSE

    Exchange Hybrid     =           TRUE
    MP2 Hybrid          =          FALSE

   => Exchange-Correlation Functionals <=

    1.0000   wB97D range-separated functional

   => Exact (HF) Exchange <=

    0.7780            HF,LR [omega = 0.2000]
    0.2220               HF 

   => Molecular Quadrature <=

    Radial Scheme       =       TREUTLER
    Pruning Scheme      =           FLAT
    Nuclear Scheme      =       TREUTLER

    BS radius alpha     =              1
    Pruning alpha       =              1
    Radial Points       =             75
    Spherical Points    =            302
    Total Points        =         113250
    Total Blocks        =            920
    Max Points          =            256
    Max Functions       =             50

   => -CHG: Empirical Dispersion <=

    Chai and Head-Gordon Dispersion Correction
    Chai, J.-D.; Head-Gordon, M. (2010), J. Chem. Phys., 132: 6615-6620

        S6 =   1.000000E+00

   => Loading Basis Set <=

    Name: (6-311++G(D,P) AUX)
    Role: JKFIT
    Keyword: DF_BASIS_SCF
    atoms 1   entry C          line   162 file /home/b6056633/anaconda3/share/psi4/basis/aug-cc-pvtz-jkfit.gbs 
    atoms 2-5 entry H          line    70 file /home/b6056633/anaconda3/share/psi4/basis/aug-cc-pvtz-jkfit.gbs 

  ==> Pre-Iterations <==

   -------------------------------------------------------
    Irrep   Nso     Nmo     Nalpha   Nbeta   Ndocc  Nsocc
   -------------------------------------------------------
     A         50      50       0       0       0       0
   -------------------------------------------------------
    Total      50      50       5       5       5       0
   -------------------------------------------------------

  ==> Integral Setup <==

  ==> DiskDFJK: Density-Fitted J/K Matrices <==

    J tasked:                  Yes
    K tasked:                  Yes
    wK tasked:                 Yes
    Omega:               2.000E-01
    OpenMP threads:              2
    Integrals threads:           2
    Memory (MB):              1430
    Algorithm:                Core
    Integral Cache:           NONE
    Schwarz Cutoff:          1E-12
    Fitting Condition:       1E-12

   => Auxiliary Basis Set <=

  Basis Set: (6-311++G(D,P) AUX)
    Blend: AUG-CC-PVTZ-JKFIT
    Number of shells: 86
    Number of basis function: 288
    Number of Cartesian functions: 351
    Spherical Harmonics?: true
    Max angular momentum: 4

  Minimum eigenvalue in the overlap matrix is 1.3435101351E-03.
  Using Symmetric Orthogonalization.

  SCF Guess: Superposition of Atomic Densities via on-the-fly atomic UHF.

  ==> Iterations <==

                           Total Energy        Delta E     RMS |[F,P]|

   @DF-RKS iter   0:   -40.50676165312267   -4.05068e+01   4.22634e-02 
   @DF-RKS iter   1:   -40.49037538255700    1.63863e-02   5.63309e-03 
   @DF-RKS iter   2:   -40.50349128338779   -1.31159e-02   3.96503e-03 DIIS
   @DF-RKS iter   3:   -40.51548611452768   -1.19948e-02   2.21195e-04 DIIS
   @DF-RKS iter   4:   -40.51556189110372   -7.57766e-05   3.67990e-05 DIIS
   @DF-RKS iter   5:   -40.51556439172277   -2.50062e-06   7.66477e-06 DIIS
   @DF-RKS iter   6:   -40.51556449079246   -9.90697e-08   1.00509e-06 DIIS
   @DF-RKS iter   7:   -40.51556449307160   -2.27914e-09   1.10751e-07 DIIS
   @DF-RKS iter   8:   -40.51556449310159   -2.99920e-11   1.05438e-08 DIIS
   @DF-RKS iter   9:   -40.51556449310188   -2.91323e-13   1.51513e-09 DIIS

  ==> Post-Iterations <==

    Orbital Energies [Eh]
    ---------------------

    Doubly Occupied:                                                      

       1A    -10.262720     2A     -0.791781     3A     -0.476822  
       4A     -0.476793     5A     -0.476750  

    Virtual:                                                              

       6A      0.043292     7A      0.082214     8A      0.082217  
       9A      0.082221    10A      0.150059    11A      0.150065  
      12A      0.150071    13A      0.176949    14A      0.262488  
      15A      0.262493    16A      0.262500    17A      0.343814  
      18A      0.487670    19A      0.487697    20A      0.487717  
      21A      0.743232    22A      0.743236    23A      0.743248  
      24A      0.760853    25A      0.913348    26A      1.047264  
      27A      1.047330    28A      1.543288    29A      1.543309  
      30A      1.543350    31A      1.633978    32A      1.634058  
      33A      1.634076    34A      2.004906    35A      2.004960  
      36A      2.005018    37A      2.401717    38A      2.401810  
      39A      2.440736    40A      2.588530    41A      2.588602  
      42A      2.588672    43A      2.656111    44A      2.656180  
      45A      2.656254    46A      3.044369    47A      3.897375  
      48A      3.897561    49A      3.897751    50A     24.164138  

    Final Occupation by Irrep:
              A 
    DOCC [     5 ]

  Energy converged.

  @DF-RKS Final Energy:   -40.51556449310188

   => Energetics <=

    Nuclear Repulsion Energy =             13.4269279416290690
    One-Electron Energy =                 -79.8404223356450444
    Two-Electron Energy =                  30.4921508243180988
    DFT Exchange-Correlation Energy =      -4.5938219953697557
    Empirical Dispersion Energy =          -0.0003989280342514
    VV10 Nonlocal Energy =                  0.0000000000000000
    Total Energy =                        -40.5155644931018770



Properties will be evaluated at   0.000000,   0.000000,   0.000000 [a0]

Properties computed using the SCF density matrix

  Nuclear Dipole Moment: [e a0]
     X:    -0.0002      Y:     0.0000      Z:     0.0001

  Electronic Dipole Moment: [e a0]
     X:     0.0001      Y:    -0.0000      Z:    -0.0001

  Dipole Moment: [e a0]
     X:    -0.0000      Y:    -0.0000      Z:     0.0000     Total:     0.0001

  Dipole Moment: [D]
     X:    -0.0001      Y:    -0.0000      Z:     0.0000     Total:     0.0001


*** tstop() called on d-snes-l-dc-01 at Fri Sep 21 17:45:30 2018
Module time:
	user time   =       3.88 seconds =       0.06 minutes
	system time =       0.03 seconds =       0.00 minutes
	total time  =          2 seconds =       0.03 minutes
Total time:
	user time   =     195.17 seconds =       3.25 minutes
	system time =       2.03 seconds =       0.03 minutes
	total time  =        102 seconds =       1.70 minutes

*** tstart() called on d-snes-l-dc-01
*** at Fri Sep 21 17:45:30 2018


         ------------------------------------------------------------
                                   SCF GRAD                          
                          Rob Parrish, Justin Turney,                
                       Andy Simmonett, and Alex Sokolov              
         ------------------------------------------------------------

  ==> Geometry <==

    Molecular point group: c1
    Full point group: C1

    Geometry (in Angstrom), charge = 0, multiplicity = 1:

       Center              X                  Y                   Z               Mass       
    ------------   -----------------  -----------------  -----------------  -----------------
         C            0.000015842253    -0.000001194456    -0.000012070288    12.000000000000
         H           -0.675137157747     0.852336805544    -0.085400070288     1.007825032070
         H           -0.393717157747    -0.835313194456    -0.580362070288     1.007825032070
         H            0.084775842253    -0.293021194456     1.047180929712     1.007825032070
         H            0.983889842253     0.276011805544    -0.381275070288     1.007825032070

  Nuclear repulsion =   13.426927941629069

  ==> Basis Set <==

  Basis Set: 6-311++G(D,P)
    Blend: 6-311++G(D,P)
    Number of shells: 30
    Number of basis function: 50
    Number of Cartesian functions: 51
    Spherical Harmonics?: true
    Max angular momentum: 2

  ==> DFJKGrad: Density-Fitted SCF Gradients <==

    Gradient:                    1
    J tasked:                  Yes
    K tasked:                  Yes
    wK tasked:                 Yes
    Omega:               2.000E-01
    OpenMP threads:              2
    Integrals threads:           2
    Memory (MB):              1430
    Schwarz Cutoff:          0E+00
    Fitting Condition:       1E-12

   => Auxiliary Basis Set <=

  Basis Set: (6-311++G(D,P) AUX)
    Blend: AUG-CC-PVTZ-JKFIT
    Number of shells: 86
    Number of basis function: 288
    Number of Cartesian functions: 351
    Spherical Harmonics?: true
    Max angular momentum: 4

  ==> DFT Potential <==

   => Composite Functional: WB97X-D <= 

    wB97X-D Hyb-GGA Exchange-Correlation Functional

    J.-D. Chai and M. Head-Gordon, Phys. Chem. Chem. Phys. 10, 6615 (2008)

    Deriv               =              1
    GGA                 =           TRUE
    Meta                =          FALSE

    Exchange Hybrid     =           TRUE
    MP2 Hybrid          =          FALSE

   => Exchange-Correlation Functionals <=

    1.0000   wB97D range-separated functional

   => Exact (HF) Exchange <=

    0.7780            HF,LR [omega = 0.2000]
    0.2220               HF 

   => Molecular Quadrature <=

    Radial Scheme       =       TREUTLER
    Pruning Scheme      =           FLAT
    Nuclear Scheme      =       TREUTLER

    BS radius alpha     =              1
    Pruning alpha       =              1
    Radial Points       =             75
    Spherical Points    =            302
    Total Points        =         113250
    Total Blocks        =            920
    Max Points          =            256
    Max Functions       =             50


  -Total Gradient:
     Atom            X                  Y                   Z
    ------   -----------------  -----------------  -----------------
       1        0.000018805251     0.000029387266    -0.000006544259
       2       -0.000022925189    -0.000001081222     0.000001536092
       3       -0.000061856811    -0.000023254639     0.000016155928
       4        0.000021889828     0.000014187879     0.000041794046
       5        0.000012714654     0.000013890797     0.000007086424


*** tstop() called on d-snes-l-dc-01 at Fri Sep 21 17:45:31 2018
Module time:
	user time   =       1.19 seconds =       0.02 minutes
	system time =       0.03 seconds =       0.00 minutes
	total time  =          1 seconds =       0.02 minutes
Total time:
	user time   =     196.36 seconds =       3.27 minutes
	system time =       2.06 seconds =       0.03 minutes
	total time  =        103 seconds =       1.72 minutes

-------------------------------------------------------------

  Computing second-derivative from gradients using projected, 
  symmetry-adapted, cartesian coordinates (fd_freq_1).

  19 gradients passed in, including the reference geometry.
  Generating complete list of displacements from unique ones.


-------------------------------------------------------------

    Psi4 stopped on: Friday, 21 September 2018 05:45PM
    Psi4 wall time for execution: 0:01:42.78

*** Psi4 exiting successfully. Buy a developer a beer!
