
    -----------------------------------------------------------------------
          Psi4: An Open-Source Ab Initio Electronic Structure Package
                               Psi4 1.2.1 release

                         Git: Rev {HEAD} 406f4de 


    R. M. Parrish, L. A. Burns, D. G. A. Smith, A. C. Simmonett,
    A. E. DePrince III, E. G. Hohenstein, U. Bozkaya, A. Yu. Sokolov,
    R. Di Remigio, R. M. Richard, J. F. Gonthier, A. M. James,
    H. R. McAlexander, A. Kumar, M. Saitow, X. Wang, B. P. Pritchard,
    P. Verma, H. F. Schaefer III, K. Patkowski, R. A. King, E. F. Valeev,
    F. A. Evangelista, J. M. Turney, T. D. Crawford, and C. D. Sherrill,
    J. Chem. Theory Comput. 13(7) pp 3185--3197 (2017).
    (doi: 10.1021/acs.jctc.7b00174)


                         Additional Contributions by
    P. Kraus, H. Kruse, M. H. Lechner, M. C. Schieber, and R. A. Shaw

    -----------------------------------------------------------------------


    Psi4 started on: Friday, 21 September 2018 02:04PM

    Process ID: 19780
    Host:       d-snes-l-dc-01
    PSIDATADIR: /home/b6056633/anaconda3/share/psi4
    Memory:     500.0 MiB
    Threads:    4
    
  ==> Input File <==

--------------------------------------------------------------------------
memory 2 GB

molecule ethane {
 0 1 
  C    -0.760000  -0.007000  -0.051000
  C     0.743000  -0.034000   0.003000
  H    -1.131000  -0.183000   0.986000
  H    -1.073000   1.019000  -0.324000
  H    -1.201000  -0.789000  -0.683000
  H     1.054000   0.902000   0.547000
  H     1.219000   0.022000  -0.987000
  H     1.149000  -0.931000   0.508000
}

set basis 6-311++G(d,p)
optimize('wb97x-d')
frequency('wb97x-d')
set hessian_write on
hessian('wb97x-d')
--------------------------------------------------------------------------

  Memory set to   1.863 GiB by Python driver.
gradient() will perform analytic gradient computation.

*** tstart() called on d-snes-l-dc-01
*** at Fri Sep 21 14:04:40 2018

   => Loading Basis Set <=

    Name: 6-311++G(D,P)
    Role: ORBITAL
    Keyword: BASIS
    atoms 1-2 entry C          line   119 file /home/b6056633/anaconda3/share/psi4/basis/6-311ppg_d_p_.gbs 
    atoms 3-8 entry H          line    42 file /home/b6056633/anaconda3/share/psi4/basis/6-311ppg_d_p_.gbs 


         ---------------------------------------------------------
                                   SCF
            by Justin Turney, Rob Parrish, Andy Simmonett
                             and Daniel Smith
                              RKS Reference
                        4 Threads,   1907 MiB Core
         ---------------------------------------------------------

  ==> Geometry <==

    Molecular point group: c1
    Full point group: C1

    Geometry (in Angstrom), charge = 0, multiplicity = 1:

       Center              X                  Y                   Z               Mass       
    ------------   -----------------  -----------------  -----------------  -----------------
         C           -0.753780833886     0.008032707008    -0.033406459887    12.000000000000
         C            0.749219166114    -0.018967292992     0.020593540113    12.000000000000
         H           -1.124780833886    -0.167967292992     1.003593540113     1.007825032070
         H           -1.066780833886     1.034032707008    -0.306406459887     1.007825032070
         H           -1.194780833886    -0.773967292992    -0.665406459887     1.007825032070
         H            1.060219166114     0.917032707008     0.564593540113     1.007825032070
         H            1.225219166114     0.037032707008    -0.969406459887     1.007825032070
         H            1.155219166114    -0.915967292992     0.525593540113     1.007825032070

  Running in c1 symmetry.

  Rotational constants: A =      2.58839  B =      0.68728  C =      0.67888 [cm^-1]
  Rotational constants: A =  77598.06779  B =  20604.24049  C =  20352.42885 [MHz]
  Nuclear repulsion =   42.236120707728830

  Charge       = 0
  Multiplicity = 1
  Electrons    = 18
  Nalpha       = 9
  Nbeta        = 9

  ==> Algorithm <==

  SCF Algorithm Type is DF.
  DIIS enabled.
  MOM disabled.
  Fractional occupation disabled.
  Guess Type is SAD.
  Energy threshold   = 1.00e-08
  Density threshold  = 1.00e-08
  Integral threshold = 0.00e+00

  ==> Primary Basis <==

  Basis Set: 6-311++G(D,P)
    Blend: 6-311++G(D,P)
    Number of shells: 50
    Number of basis function: 86
    Number of Cartesian functions: 88
    Spherical Harmonics?: true
    Max angular momentum: 2

  ==> DFT Potential <==

   => Composite Functional: WB97X-D <= 

    wB97X-D Hyb-GGA Exchange-Correlation Functional

    J.-D. Chai and M. Head-Gordon, Phys. Chem. Chem. Phys. 10, 6615 (2008)

    Deriv               =              1
    GGA                 =           TRUE
    Meta                =          FALSE

    Exchange Hybrid     =           TRUE
    MP2 Hybrid          =          FALSE

   => Exchange-Correlation Functionals <=

    1.0000   wB97D range-separated functional

   => Exact (HF) Exchange <=

    0.7780            HF,LR [omega = 0.2000]
    0.2220               HF 

   => Molecular Quadrature <=

    Radial Scheme       =       TREUTLER
    Pruning Scheme      =           FLAT
    Nuclear Scheme      =       TREUTLER

    BS radius alpha     =              1
    Pruning alpha       =              1
    Radial Points       =             75
    Spherical Points    =            302
    Total Points        =         181200
    Total Blocks        =           1426
    Max Points          =            256
    Max Functions       =             86

   => -CHG: Empirical Dispersion <=

    Chai and Head-Gordon Dispersion Correction
    Chai, J.-D.; Head-Gordon, M. (2010), J. Chem. Phys., 132: 6615-6620

        S6 =   1.000000E+00

   => Loading Basis Set <=

    Name: (6-311++G(D,P) AUX)
    Role: JKFIT
    Keyword: DF_BASIS_SCF
    atoms 1-2 entry C          line   162 file /home/b6056633/anaconda3/share/psi4/basis/aug-cc-pvtz-jkfit.gbs 
    atoms 3-8 entry H          line    70 file /home/b6056633/anaconda3/share/psi4/basis/aug-cc-pvtz-jkfit.gbs 

  ==> Pre-Iterations <==

   -------------------------------------------------------
    Irrep   Nso     Nmo     Nalpha   Nbeta   Ndocc  Nsocc
   -------------------------------------------------------
     A         86      86       0       0       0       0
   -------------------------------------------------------
    Total      86      86       9       9       9       0
   -------------------------------------------------------

  ==> Integral Setup <==

  ==> DiskDFJK: Density-Fitted J/K Matrices <==

    J tasked:                  Yes
    K tasked:                  Yes
    wK tasked:                 Yes
    Omega:               2.000E-01
    OpenMP threads:              4
    Integrals threads:           4
    Memory (MB):              1430
    Algorithm:                Core
    Integral Cache:           NONE
    Schwarz Cutoff:          1E-12
    Fitting Condition:       1E-12

   => Auxiliary Basis Set <=

  Basis Set: (6-311++G(D,P) AUX)
    Blend: AUG-CC-PVTZ-JKFIT
    Number of shells: 144
    Number of basis function: 484
    Number of Cartesian functions: 592
    Spherical Harmonics?: true
    Max angular momentum: 4

  Minimum eigenvalue in the overlap matrix is 1.3807436887E-04.
  Using Symmetric Orthogonalization.

  SCF Guess: Superposition of Atomic Densities via on-the-fly atomic UHF.

  ==> Iterations <==

                           Total Energy        Delta E     RMS |[F,P]|

   @DF-RKS iter   0:   -80.18097698057002   -8.01810e+01   5.97613e-02 
   @DF-RKS iter   1:   -79.79688589312478    3.84091e-01   3.91126e-03 
   @DF-RKS iter   2:   -79.81351419108063   -1.66283e-02   2.65098e-03 DIIS
   @DF-RKS iter   3:   -79.82047006523901   -6.95587e-03   5.06108e-04 DIIS
   @DF-RKS iter   4:   -79.82075984492089   -2.89780e-04   6.93793e-05 DIIS
   @DF-RKS iter   5:   -79.82077039333022   -1.05484e-05   1.50480e-05 DIIS
   @DF-RKS iter   6:   -79.82077088126786   -4.87938e-07   3.67612e-06 DIIS
   @DF-RKS iter   7:   -79.82077090549699   -2.42291e-08   1.36001e-06 DIIS
   @DF-RKS iter   8:   -79.82077090750985   -2.01287e-09   3.41893e-07 DIIS
   @DF-RKS iter   9:   -79.82077090766003   -1.50180e-10   5.26735e-08 DIIS
   @DF-RKS iter  10:   -79.82077090766752   -7.48912e-12   8.01520e-09 DIIS

  ==> Post-Iterations <==

    Orbital Energies [Eh]
    ---------------------

    Doubly Occupied:                                                      

       1A    -10.272847     2A    -10.272395     3A     -0.855625  
       4A     -0.701865     5A     -0.530252     6A     -0.517966  
       7A     -0.450613     8A     -0.424789     9A     -0.414280  

    Virtual:                                                              

      10A      0.044517    11A      0.062207    12A      0.069869  
      13A      0.071319    14A      0.101897    15A      0.102353  
      16A      0.138444    17A      0.144635    18A      0.147330  
      19A      0.174638    20A      0.177922    21A      0.195056  
      22A      0.198202    23A      0.199111    24A      0.239157  
      25A      0.242404    26A      0.277486    27A      0.281410  
      28A      0.320881    29A      0.364928    30A      0.374475  
      31A      0.506426    32A      0.514651    33A      0.528682  
      34A      0.532688    35A      0.536032    36A      0.722550  
      37A      0.728278    38A      0.738287    39A      0.739917  
      40A      0.745705    41A      0.786423    42A      0.795820  
      43A      0.918769    44A      0.976128    45A      1.036588  
      46A      1.050164    47A      1.354392    48A      1.367929  
      49A      1.526350    50A      1.538472    51A      1.604565  
      52A      1.619039    53A      1.645115    54A      1.650727  
      55A      1.666014    56A      1.777539    57A      1.797038  
      58A      1.832774    59A      1.937774    60A      1.952585  
      61A      2.164078    62A      2.174272    63A      2.191692  
      64A      2.225274    65A      2.397926    66A      2.406560  
      67A      2.494026    68A      2.563768    69A      2.576304  
      70A      2.579114    71A      2.645856    72A      2.696594  
      73A      2.707234    74A      2.733232    75A      2.766670  
      76A      2.769627    77A      2.953326    78A      2.976841  
      79A      3.327550    80A      3.828035    81A      3.836612  
      82A      3.920271    83A      3.960075    84A      4.312843  
      85A     24.043801    86A     24.083049  

    Final Occupation by Irrep:
              A 
    DOCC [     9 ]

  Energy converged.

  @DF-RKS Final Energy:   -79.82077090766752

   => Energetics <=

    Nuclear Repulsion Energy =             42.2361207077288299
    One-Electron Energy =                -189.3368150557573131
    Two-Electron Energy =                  76.0545905445422790
    DFT Exchange-Correlation Energy =      -8.7727699969879573
    Empirical Dispersion Energy =          -0.0018971071933767
    VV10 Nonlocal Energy =                  0.0000000000000000
    Total Energy =                        -79.8207709076675229



Properties will be evaluated at   0.000000,   0.000000,   0.000000 [a0]

Properties computed using the SCF density matrix

  Nuclear Dipole Moment: [e a0]
     X:     0.0509      Y:     0.1221      Z:     0.1430

  Electronic Dipole Moment: [e a0]
     X:    -0.0508      Y:    -0.1189      Z:    -0.1374

  Dipole Moment: [e a0]
     X:     0.0001      Y:     0.0031      Z:     0.0056     Total:     0.0064

  Dipole Moment: [D]
     X:     0.0003      Y:     0.0079      Z:     0.0143     Total:     0.0164


*** tstop() called on d-snes-l-dc-01 at Fri Sep 21 14:04:44 2018
Module time:
	user time   =      12.35 seconds =       0.21 minutes
	system time =       0.21 seconds =       0.00 minutes
	total time  =          4 seconds =       0.07 minutes
Total time:
	user time   =      12.35 seconds =       0.21 minutes
	system time =       0.21 seconds =       0.00 minutes
	total time  =          4 seconds =       0.07 minutes

*** tstart() called on d-snes-l-dc-01
*** at Fri Sep 21 14:04:44 2018


         ------------------------------------------------------------
                                   SCF GRAD                          
                          Rob Parrish, Justin Turney,                
                       Andy Simmonett, and Alex Sokolov              
         ------------------------------------------------------------

  ==> Geometry <==

    Molecular point group: c1
    Full point group: C1

    Geometry (in Angstrom), charge = 0, multiplicity = 1:

       Center              X                  Y                   Z               Mass       
    ------------   -----------------  -----------------  -----------------  -----------------
         C           -0.753780833886     0.008032707008    -0.033406459887    12.000000000000
         C            0.749219166114    -0.018967292992     0.020593540113    12.000000000000
         H           -1.124780833886    -0.167967292992     1.003593540113     1.007825032070
         H           -1.066780833886     1.034032707008    -0.306406459887     1.007825032070
         H           -1.194780833886    -0.773967292992    -0.665406459887     1.007825032070
         H            1.060219166114     0.917032707008     0.564593540113     1.007825032070
         H            1.225219166114     0.037032707008    -0.969406459887     1.007825032070
         H            1.155219166114    -0.915967292992     0.525593540113     1.007825032070

  Nuclear repulsion =   42.236120707728830

  ==> Basis Set <==

  Basis Set: 6-311++G(D,P)
    Blend: 6-311++G(D,P)
    Number of shells: 50
    Number of basis function: 86
    Number of Cartesian functions: 88
    Spherical Harmonics?: true
    Max angular momentum: 2

  ==> DFJKGrad: Density-Fitted SCF Gradients <==

    Gradient:                    1
    J tasked:                  Yes
    K tasked:                  Yes
    wK tasked:                 Yes
    Omega:               2.000E-01
    OpenMP threads:              4
    Integrals threads:           4
    Memory (MB):              1430
    Schwarz Cutoff:          0E+00
    Fitting Condition:       1E-12

   => Auxiliary Basis Set <=

  Basis Set: (6-311++G(D,P) AUX)
    Blend: AUG-CC-PVTZ-JKFIT
    Number of shells: 144
    Number of basis function: 484
    Number of Cartesian functions: 592
    Spherical Harmonics?: true
    Max angular momentum: 4

  ==> DFT Potential <==

   => Composite Functional: WB97X-D <= 

    wB97X-D Hyb-GGA Exchange-Correlation Functional

    J.-D. Chai and M. Head-Gordon, Phys. Chem. Chem. Phys. 10, 6615 (2008)

    Deriv               =              1
    GGA                 =           TRUE
    Meta                =          FALSE

    Exchange Hybrid     =           TRUE
    MP2 Hybrid          =          FALSE

   => Exchange-Correlation Functionals <=

    1.0000   wB97D range-separated functional

   => Exact (HF) Exchange <=

    0.7780            HF,LR [omega = 0.2000]
    0.2220               HF 

   => Molecular Quadrature <=

    Radial Scheme       =       TREUTLER
    Pruning Scheme      =           FLAT
    Nuclear Scheme      =       TREUTLER

    BS radius alpha     =              1
    Pruning alpha       =              1
    Radial Points       =             75
    Spherical Points    =            302
    Total Points        =         181200
    Total Blocks        =           1426
    Max Points          =            256
    Max Functions       =             86


  -Total Gradient:
     Atom            X                  Y                   Z
    ------   -----------------  -----------------  -----------------
       1        0.012145475866    -0.001806110942    -0.018423629168
       2       -0.021407467748    -0.013263894041    -0.004684474322
       3        0.000373336933    -0.002499579124     0.012263971609
       4        0.004932983365     0.012839144598     0.004284134656
       5       -0.000629864381    -0.007255328561     0.001471919206
       6       -0.002253556215     0.020095775511     0.005369881148
       7        0.003673003397     0.000707448425    -0.002112456274
       8        0.003248069147    -0.008783860350     0.001854780301


*** tstop() called on d-snes-l-dc-01 at Fri Sep 21 14:04:45 2018
Module time:
	user time   =       4.90 seconds =       0.08 minutes
	system time =       0.06 seconds =       0.00 minutes
	total time  =          1 seconds =       0.02 minutes
Total time:
	user time   =      17.25 seconds =       0.29 minutes
	system time =       0.27 seconds =       0.00 minutes
	total time  =          5 seconds =       0.08 minutes

			-----------------------------------------
			 OPTKING 2.0: for geometry optimizations 
			  - R.A. King,  Bethel University        
			-----------------------------------------

	Internal coordinates to be generated automatically.
	Detected frag 1 with atoms:  1 2 3 4 5 6 7 8
	---Fragment 1 Bond Connectivity---
	 1 : 2 3 4 5
	 2 : 1 6 7 8
	 3 : 1
	 4 : 1
	 5 : 1
	 6 : 2
	 7 : 2
	 8 : 2

	---Fragment 1 Geometry and Gradient---
	 C          -1.4244393403        0.0151796164       -0.0631290603
	 C           1.4158190375       -0.0358429892        0.0389161509
	 H          -2.1255277356       -0.3174121830        1.8965169395
	 H          -2.0159236199        1.9540386287       -0.5790242945
	 H          -2.2578085649       -1.4625862196       -1.2574359762
	 H           2.0035238648        1.7329406711        1.0669271672
	 H           2.3153286767        0.0699816742       -1.8319127206
	 H           2.1830478474       -1.7309273304        0.9932278480
	             0.0121454759       -0.0018061109       -0.0184236292
	            -0.0214074677       -0.0132638940       -0.0046844743
	             0.0003733369       -0.0024995791        0.0122639716
	             0.0049329834        0.0128391446        0.0042841347
	            -0.0006298644       -0.0072553286        0.0014719192
	            -0.0022535562        0.0200957755        0.0053698811
	             0.0036730034        0.0007074484       -0.0021124563
	             0.0032480691       -0.0087838604        0.0018547803

	Previous optimization step data not found.  Starting new optimization.

	---Fragment 1 Intrafragment Coordinates---
	 - Coordinate -           - BOHR/RAD -       - ANG/DEG -
	 R(1,2)           =         2.842549	       1.504212
	 R(1,3)           =         2.107689	       1.115341
	 R(1,4)           =         2.091692	       1.106876
	 R(1,5)           =         2.074769	       1.097920
	 R(2,6)           =         2.128567	       1.126389
	 R(2,7)           =         2.078537	       1.099915
	 R(2,8)           =         2.091091	       1.106558
	 B(1,2,6)         =         1.852823	     106.158959
	 B(1,2,7)         =         1.981426	     113.527334
	 B(1,2,8)         =         1.979632	     113.424582
	 B(2,1,3)         =         1.871461	     107.226841
	 B(2,1,4)         =         1.883931	     107.941289
	 B(2,1,5)         =         1.992401	     114.156155
	 B(3,1,4)         =         1.856178	     106.351192
	 B(3,1,5)         =         1.864187	     106.810042
	 B(4,1,5)         =         1.987399	     113.869582
	 B(6,2,7)         =         1.847205	     105.837073
	 B(6,2,8)         =         1.930390	     110.603209
	 B(7,2,8)         =         1.868426	     107.052919
	 D(3,1,2,6)       =        -1.227851	     -70.350678
	 D(3,1,2,7)       =         3.033344	     173.797816
	 D(3,1,2,8)       =         0.895435	      51.304667
	 D(4,1,2,6)       =         0.765626	      43.867162
	 D(4,1,2,7)       =        -1.256364	     -71.984345
	 D(4,1,2,8)       =         2.888913	     165.522506
	 D(5,1,2,6)       =         2.994222	     171.556311
	 D(5,1,2,7)       =         0.972232	      55.704805
	 D(5,1,2,8)       =        -1.165677	     -66.788344

	Current energy   :       -79.8207709077

	Generating empirical Hessian (Schlegel '84) for each fragment.
	Taking RFO optimization step.
	Going to follow RFO solution 1.
	Using RFO vector 1.
	Norm of target step-size    0.25309
	Projected energy change by RFO approximation:        -0.0123405747

	Back-transformation to cartesian coordinates...
	Could not converge backtransformation.
	Using first guess instead.

	--- Internal Coordinate Step in ANG or DEG, aJ/ANG or AJ/DEG ---
	 ---------------------------------------------------------------------------
	   Coordinate                Previous        Force       Change         New 
	   ----------                --------       ------       ------       ------
	    1 R(1,2)          =      1.504212     0.137840     0.027223     1.531435
	    2 R(1,3)          =      1.115341    -0.096269    -0.017499     1.097842
	    3 R(1,4)          =      1.106876    -0.077872    -0.010343     1.096533
	    4 R(1,5)          =      1.097920    -0.037660    -0.006501     1.091419
	    5 R(2,6)          =      1.126389    -0.153664    -0.026805     1.099584
	    6 R(2,7)          =      1.099915    -0.029123    -0.004785     1.095129
	    7 R(2,8)          =      1.106558    -0.075441    -0.013993     1.092565
	    8 B(1,2,6)        =    106.158959     0.000928     4.639485   110.798444
	    9 B(1,2,7)        =    113.527334    -0.000329    -1.341228   112.186106
	   10 B(1,2,8)        =    113.424582    -0.000134    -1.188137   112.236444
	   11 B(2,1,3)        =    107.226841     0.000541     3.482506   110.709347
	   12 B(2,1,4)        =    107.941289     0.000767     2.999633   110.940923
	   13 B(2,1,5)        =    114.156155    -0.000195    -1.578528   112.577627
	   14 B(3,1,4)        =    106.351192    -0.000285    -0.025452   106.325739
	   15 B(3,1,5)        =    106.810042    -0.000118     0.152511   106.962553
	   16 B(4,1,5)        =    113.869582    -0.000670    -4.814118   109.055464
	   17 B(6,2,7)        =    105.837073    -0.000119     0.770219   106.607291
	   18 B(6,2,8)        =    110.603209    -0.000532    -2.947416   107.655793
	   19 B(7,2,8)        =    107.052919     0.000159     0.007120   107.060038
	   20 D(3,1,2,6)      =    -70.350678     0.000020     3.242860   -67.107818
	   21 D(3,1,2,7)      =    173.797816    -0.000039     0.076736   173.874552
	   22 D(3,1,2,8)      =     51.304667    -0.000004     1.971734    53.276401
	   23 D(4,1,2,6)      =     43.867162     0.000092     6.828661    50.695823
	   24 D(4,1,2,7)      =    -71.984345     0.000032     3.662538   -68.321807
	   25 D(4,1,2,8)      =    165.522506     0.000067     5.557535   171.080041
	   26 D(5,1,2,6)      =    171.556311    -0.000003     1.667211   173.223522
	   27 D(5,1,2,7)      =     55.704805    -0.000063    -1.498913    54.205892
	   28 D(5,1,2,8)      =    -66.788344    -0.000028     0.396084   -66.392260
	 ---------------------------------------------------------------------------
	Successfully symmetrized geometry.

  ==> Convergence Check <==

  Measures of convergence in internal coordinates in au.
  Criteria marked as inactive (o), active & met (*), and active & unmet ( ).
  --------------------------------------------------------------------------------------------- ~
   Step     Total Energy     Delta E     MAX Force     RMS Force      MAX Disp      RMS Disp    ~
  --------------------------------------------------------------------------------------------- ~
    Convergence Criteria    1.00e-06 *    3.00e-04 *             o    1.20e-03 *             o  ~
  --------------------------------------------------------------------------------------------- ~
      1     -79.82077091   -7.98e+01      1.87e-02      7.36e-03 o    1.19e-01      4.85e-02 o  ~
  ---------------------------------------------------------------------------------------------

	Writing optimization data to binary file.
	Structure for next step:
	Cartesian Geometry (in Angstrom)
	    C    -0.7613747204   0.0163613763  -0.0092001152
	    C     0.7694776255   0.0009818295   0.0301387546
	    H    -1.1771531540  -0.1456096008   0.9938709263
	    H    -1.1350314547   0.9913878749  -0.3439956111
	    H    -1.1718358289  -0.7629704710  -0.6536834056
	    H     1.1544381663   0.8669591874   0.5877895355
	    H     1.2094319070   0.0529081806  -0.9713862752
	    H     1.1618007880  -0.9007567209   0.5062145118
			--------------------------
			 OPTKING Finished Execution 
			--------------------------

    Structure for next step:
    Molecular point group: c1
    Full point group: C1

    Geometry (in Angstrom), charge = 0, multiplicity = 1:

    C           -0.766007842924     0.006016418362    -0.021547559507
    C            0.764844503024    -0.009363128389     0.017791310300
    H           -1.181786276446    -0.155954558685     0.981523481992
    H           -1.139664577181     0.981042917044    -0.356343055439
    H           -1.176468951369    -0.773315428856    -0.666030849917
    H            1.149805043799     0.856614229547     0.575442091162
    H            1.204798784554     0.042563222692    -0.983733719517
    H            1.157167665538    -0.911101678792     0.493867067517

gradient() will perform analytic gradient computation.

*** tstart() called on d-snes-l-dc-01
*** at Fri Sep 21 14:04:45 2018

   => Loading Basis Set <=

    Name: 6-311++G(D,P)
    Role: ORBITAL
    Keyword: BASIS
    atoms 1-2 entry C          line   119 file /home/b6056633/anaconda3/share/psi4/basis/6-311ppg_d_p_.gbs 
    atoms 3-8 entry H          line    42 file /home/b6056633/anaconda3/share/psi4/basis/6-311ppg_d_p_.gbs 


         ---------------------------------------------------------
                                   SCF
            by Justin Turney, Rob Parrish, Andy Simmonett
                             and Daniel Smith
                              RKS Reference
                        4 Threads,   1907 MiB Core
         ---------------------------------------------------------

  ==> Geometry <==

    Molecular point group: c1
    Full point group: C1

    Geometry (in Angstrom), charge = 0, multiplicity = 1:

       Center              X                  Y                   Z               Mass       
    ------------   -----------------  -----------------  -----------------  -----------------
         C           -0.766007842924     0.006016418362    -0.021547559507    12.000000000000
         C            0.764844503024    -0.009363128389     0.017791310300    12.000000000000
         H           -1.181786276446    -0.155954558685     0.981523481992     1.007825032070
         H           -1.139664577181     0.981042917044    -0.356343055439     1.007825032070
         H           -1.176468951369    -0.773315428856    -0.666030849917     1.007825032070
         H            1.149805043799     0.856614229547     0.575442091162     1.007825032070
         H            1.204798784554     0.042563222692    -0.983733719517     1.007825032070
         H            1.157167665538    -0.911101678792     0.493867067517     1.007825032070

  Running in c1 symmetry.

  Rotational constants: A =      2.68648  B =      0.66299  C =      0.66091 [cm^-1]
  Rotational constants: A =  80538.51049  B =  19875.96117  C =  19813.63079 [MHz]
  Nuclear repulsion =   42.100984642290001

  Charge       = 0
  Multiplicity = 1
  Electrons    = 18
  Nalpha       = 9
  Nbeta        = 9

  ==> Algorithm <==

  SCF Algorithm Type is DF.
  DIIS enabled.
  MOM disabled.
  Fractional occupation disabled.
  Guess Type is READ.
  Energy threshold   = 1.00e-08
  Density threshold  = 1.00e-08
  Integral threshold = 0.00e+00

  ==> Primary Basis <==

  Basis Set: 6-311++G(D,P)
    Blend: 6-311++G(D,P)
    Number of shells: 50
    Number of basis function: 86
    Number of Cartesian functions: 88
    Spherical Harmonics?: true
    Max angular momentum: 2

  ==> DFT Potential <==

   => Composite Functional: WB97X-D <= 

    wB97X-D Hyb-GGA Exchange-Correlation Functional

    J.-D. Chai and M. Head-Gordon, Phys. Chem. Chem. Phys. 10, 6615 (2008)

    Deriv               =              1
    GGA                 =           TRUE
    Meta                =          FALSE

    Exchange Hybrid     =           TRUE
    MP2 Hybrid          =          FALSE

   => Exchange-Correlation Functionals <=

    1.0000   wB97D range-separated functional

   => Exact (HF) Exchange <=

    0.7780            HF,LR [omega = 0.2000]
    0.2220               HF 

   => Molecular Quadrature <=

    Radial Scheme       =       TREUTLER
    Pruning Scheme      =           FLAT
    Nuclear Scheme      =       TREUTLER

    BS radius alpha     =              1
    Pruning alpha       =              1
    Radial Points       =             75
    Spherical Points    =            302
    Total Points        =         181200
    Total Blocks        =           1433
    Max Points          =            256
    Max Functions       =             86

   => -CHG: Empirical Dispersion <=

    Chai and Head-Gordon Dispersion Correction
    Chai, J.-D.; Head-Gordon, M. (2010), J. Chem. Phys., 132: 6615-6620

        S6 =   1.000000E+00

   => Loading Basis Set <=

    Name: (6-311++G(D,P) AUX)
    Role: JKFIT
    Keyword: DF_BASIS_SCF
    atoms 1-2 entry C          line   162 file /home/b6056633/anaconda3/share/psi4/basis/aug-cc-pvtz-jkfit.gbs 
    atoms 3-8 entry H          line    70 file /home/b6056633/anaconda3/share/psi4/basis/aug-cc-pvtz-jkfit.gbs 

  Reading orbitals from file 180, no projection.

  ==> Pre-Iterations <==

   -------------------------------------------------------
    Irrep   Nso     Nmo     Nalpha   Nbeta   Ndocc  Nsocc
   -------------------------------------------------------
     A         86      86       0       0       0       0
   -------------------------------------------------------
    Total      86      86       9       9       9       0
   -------------------------------------------------------

  ==> Integral Setup <==

  ==> DiskDFJK: Density-Fitted J/K Matrices <==

    J tasked:                  Yes
    K tasked:                  Yes
    wK tasked:                 Yes
    Omega:               2.000E-01
    OpenMP threads:              4
    Integrals threads:           4
    Memory (MB):              1430
    Algorithm:                Core
    Integral Cache:           NONE
    Schwarz Cutoff:          1E-12
    Fitting Condition:       1E-12

   => Auxiliary Basis Set <=

  Basis Set: (6-311++G(D,P) AUX)
    Blend: AUG-CC-PVTZ-JKFIT
    Number of shells: 144
    Number of basis function: 484
    Number of Cartesian functions: 592
    Spherical Harmonics?: true
    Max angular momentum: 4

  Minimum eigenvalue in the overlap matrix is 1.5011883617E-04.
  Using Symmetric Orthogonalization.

  SCF Guess: Orbitals guess was supplied from a previous computation.

  ==> Iterations <==

                           Total Energy        Delta E     RMS |[F,P]|

   @DF-RKS iter   0:   -79.84417796896128   -7.98442e+01   1.94073e-03 
   @DF-RKS iter   1:   -79.82458712012952    1.95908e-02   3.17747e-04 
   @DF-RKS iter   2:   -79.82474190386054   -1.54784e-04   1.36825e-04 DIIS
   @DF-RKS iter   3:   -79.82475990162563   -1.79978e-05   3.80891e-05 DIIS
   @DF-RKS iter   4:   -79.82476215073481   -2.24911e-06   1.46097e-05 DIIS
   @DF-RKS iter   5:   -79.82476246134144   -3.10607e-07   1.84765e-06 DIIS
   @DF-RKS iter   6:   -79.82476246734588   -6.00444e-09   3.31739e-07 DIIS
   @DF-RKS iter   7:   -79.82476246754941   -2.03528e-10   6.50198e-08 DIIS
   @DF-RKS iter   8:   -79.82476246755743   -8.02913e-12   2.76910e-08 DIIS
   @DF-RKS iter   9:   -79.82476246755826   -8.24230e-13   5.76403e-09 DIIS

  ==> Post-Iterations <==

    Orbital Energies [Eh]
    ---------------------

    Doubly Occupied:                                                      

       1A    -10.270390     2A    -10.270142     3A     -0.850686  
       4A     -0.710891     5A     -0.521938     6A     -0.518326  
       7A     -0.451973     8A     -0.426015     9A     -0.422280  

    Virtual:                                                              

      10A      0.044704    11A      0.061448    12A      0.070972  
      13A      0.071389    14A      0.101986    15A      0.102220  
      16A      0.140207    17A      0.146846    18A      0.147602  
      19A      0.174236    20A      0.178665    21A      0.194375  
      22A      0.198471    23A      0.198595    24A      0.244219  
      25A      0.245145    26A      0.280438    27A      0.281654  
      28A      0.326069    29A      0.364731    30A      0.374394  
      31A      0.507034    32A      0.509483    33A      0.532377  
      34A      0.537137    35A      0.539868    36A      0.728598  
      37A      0.730390    38A      0.731601    39A      0.745037  
      40A      0.745188    41A      0.791578    42A      0.816018  
      43A      0.924561    44A      0.986645    45A      1.040811  
      46A      1.043714    47A      1.339954    48A      1.343423  
      49A      1.552180    50A      1.558824    51A      1.627486  
      52A      1.631102    53A      1.646651    54A      1.649647  
      55A      1.652909    56A      1.780337    57A      1.783786  
      58A      1.845036    59A      1.936495    60A      1.940477  
      61A      2.190006    62A      2.208195    63A      2.213123  
      64A      2.222145    65A      2.409834    66A      2.410997  
      67A      2.515999    68A      2.568184    69A      2.575039  
      70A      2.578360    71A      2.680649    72A      2.695065  
      73A      2.720870    74A      2.728316    75A      2.760329  
      76A      2.769225    77A      2.936657    78A      2.940341  
      79A      3.301601    80A      3.862352    81A      3.878371  
      82A      3.932796    83A      3.942620    84A      4.325226  
      85A     24.040060    86A     24.131780  

    Final Occupation by Irrep:
              A 
    DOCC [     9 ]

  Energy converged.

  @DF-RKS Final Energy:   -79.82476246755826

   => Energetics <=

    Nuclear Repulsion Energy =             42.1009846422900011
    One-Electron Energy =                -189.0626276932246981
    Two-Electron Energy =                  75.9230260191279598
    DFT Exchange-Correlation Energy =      -8.7842960755349466
    Empirical Dispersion Energy =          -0.0018493602165922
    VV10 Nonlocal Energy =                  0.0000000000000000
    Total Energy =                        -79.8247624675582870



Properties will be evaluated at   0.000000,   0.000000,   0.000000 [a0]

Properties computed using the SCF density matrix

  Nuclear Dipole Moment: [e a0]
     X:     0.0130      Y:     0.0374      Z:     0.0419

  Electronic Dipole Moment: [e a0]
     X:    -0.0126      Y:    -0.0360      Z:    -0.0379

  Dipole Moment: [e a0]
     X:     0.0004      Y:     0.0013      Z:     0.0040     Total:     0.0042

  Dipole Moment: [D]
     X:     0.0009      Y:     0.0033      Z:     0.0101     Total:     0.0107


*** tstop() called on d-snes-l-dc-01 at Fri Sep 21 14:04:48 2018
Module time:
	user time   =      11.74 seconds =       0.20 minutes
	system time =       0.10 seconds =       0.00 minutes
	total time  =          3 seconds =       0.05 minutes
Total time:
	user time   =      29.05 seconds =       0.48 minutes
	system time =       0.37 seconds =       0.01 minutes
	total time  =          8 seconds =       0.13 minutes

*** tstart() called on d-snes-l-dc-01
*** at Fri Sep 21 14:04:48 2018


         ------------------------------------------------------------
                                   SCF GRAD                          
                          Rob Parrish, Justin Turney,                
                       Andy Simmonett, and Alex Sokolov              
         ------------------------------------------------------------

  ==> Geometry <==

    Molecular point group: c1
    Full point group: C1

    Geometry (in Angstrom), charge = 0, multiplicity = 1:

       Center              X                  Y                   Z               Mass       
    ------------   -----------------  -----------------  -----------------  -----------------
         C           -0.766007842924     0.006016418362    -0.021547559507    12.000000000000
         C            0.764844503024    -0.009363128389     0.017791310300    12.000000000000
         H           -1.181786276446    -0.155954558685     0.981523481992     1.007825032070
         H           -1.139664577181     0.981042917044    -0.356343055439     1.007825032070
         H           -1.176468951369    -0.773315428856    -0.666030849917     1.007825032070
         H            1.149805043799     0.856614229547     0.575442091162     1.007825032070
         H            1.204798784554     0.042563222692    -0.983733719517     1.007825032070
         H            1.157167665538    -0.911101678792     0.493867067517     1.007825032070

  Nuclear repulsion =   42.100984642290001

  ==> Basis Set <==

  Basis Set: 6-311++G(D,P)
    Blend: 6-311++G(D,P)
    Number of shells: 50
    Number of basis function: 86
    Number of Cartesian functions: 88
    Spherical Harmonics?: true
    Max angular momentum: 2

  ==> DFJKGrad: Density-Fitted SCF Gradients <==

    Gradient:                    1
    J tasked:                  Yes
    K tasked:                  Yes
    wK tasked:                 Yes
    Omega:               2.000E-01
    OpenMP threads:              4
    Integrals threads:           4
    Memory (MB):              1430
    Schwarz Cutoff:          0E+00
    Fitting Condition:       1E-12

   => Auxiliary Basis Set <=

  Basis Set: (6-311++G(D,P) AUX)
    Blend: AUG-CC-PVTZ-JKFIT
    Number of shells: 144
    Number of basis function: 484
    Number of Cartesian functions: 592
    Spherical Harmonics?: true
    Max angular momentum: 4

  ==> DFT Potential <==

   => Composite Functional: WB97X-D <= 

    wB97X-D Hyb-GGA Exchange-Correlation Functional

    J.-D. Chai and M. Head-Gordon, Phys. Chem. Chem. Phys. 10, 6615 (2008)

    Deriv               =              1
    GGA                 =           TRUE
    Meta                =          FALSE

    Exchange Hybrid     =           TRUE
    MP2 Hybrid          =          FALSE

   => Exchange-Correlation Functionals <=

    1.0000   wB97D range-separated functional

   => Exact (HF) Exchange <=

    0.7780            HF,LR [omega = 0.2000]
    0.2220               HF 

   => Molecular Quadrature <=

    Radial Scheme       =       TREUTLER
    Pruning Scheme      =           FLAT
    Nuclear Scheme      =       TREUTLER

    BS radius alpha     =              1
    Pruning alpha       =              1
    Radial Points       =             75
    Spherical Points    =            302
    Total Points        =         181200
    Total Blocks        =           1433
    Max Points          =            256
    Max Functions       =             86


  -Total Gradient:
     Atom            X                  Y                   Z
    ------   -----------------  -----------------  -----------------
       1       -0.000995875782    -0.002765331843    -0.006531768006
       2       -0.001244257715    -0.004244143363     0.000458757800
       3       -0.001456553713    -0.000116351184     0.001903485144
       4       -0.000463161095     0.003118498271     0.002122411786
       5       -0.000771978162    -0.000284131918     0.001779991662
       6        0.001567393737     0.003725421586     0.000745322927
       7        0.002091630060    -0.000011678118    -0.000156287207
       8        0.001211382629     0.000578592250    -0.000476725168


*** tstop() called on d-snes-l-dc-01 at Fri Sep 21 14:04:50 2018
Module time:
	user time   =       5.14 seconds =       0.09 minutes
	system time =       0.12 seconds =       0.00 minutes
	total time  =          2 seconds =       0.03 minutes
Total time:
	user time   =      34.19 seconds =       0.57 minutes
	system time =       0.49 seconds =       0.01 minutes
	total time  =         10 seconds =       0.17 minutes

			-----------------------------------------
			 OPTKING 2.0: for geometry optimizations 
			  - R.A. King,  Bethel University        
			-----------------------------------------

	Previous internal coordinate definitions found.
	---Fragment 1 Geometry and Gradient---
	 C          -1.4475450388        0.0113693830       -0.0407189863
	 C           1.4453466450       -0.0176937484        0.0336207040
	 H          -2.2332524101       -0.2947114051        1.8548105740
	 H          -2.1536539342        1.8539024378       -0.6733907841
	 H          -2.2232041219       -1.4613543749       -1.2586159024
	 H           2.1728166390        1.6187662954        1.0874279576
	 H           2.2767397480        0.0804328342       -1.8589873176
	 H           2.1867299777       -1.7217326521        0.9332735037
	            -0.0009958758       -0.0027653318       -0.0065317680
	            -0.0012442577       -0.0042441434        0.0004587578
	            -0.0014565537       -0.0001163512        0.0019034851
	            -0.0004631611        0.0031184983        0.0021224118
	            -0.0007719782       -0.0002841319        0.0017799917
	             0.0015673937        0.0037254216        0.0007453229
	             0.0020916301       -0.0000116781       -0.0001562872
	             0.0012113826        0.0005785922       -0.0004767252

	---Fragment 1 Intrafragment Coordinates---
	 - Coordinate -           - BOHR/RAD -       - ANG/DEG -
	 R(1,2)           =         2.893993	       1.531435
	 R(1,3)           =         2.074621	       1.097842
	 R(1,4)           =         2.072147	       1.096533
	 R(1,5)           =         2.062483	       1.091419
	 R(2,6)           =         2.077913	       1.099584
	 R(2,7)           =         2.069495	       1.095129
	 R(2,8)           =         2.064648	       1.092565
	 B(1,2,6)         =         1.933798	     110.798444
	 B(1,2,7)         =         1.958017	     112.186106
	 B(1,2,8)         =         1.958895	     112.236444
	 B(2,1,3)         =         1.932243	     110.709347
	 B(2,1,4)         =         1.936284	     110.940923
	 B(2,1,5)         =         1.964850	     112.577627
	 B(3,1,4)         =         1.855734	     106.325739
	 B(3,1,5)         =         1.866849	     106.962553
	 B(4,1,5)         =         1.903377	     109.055464
	 B(6,2,7)         =         1.860648	     106.607291
	 B(6,2,8)         =         1.878948	     107.655793
	 B(7,2,8)         =         1.868550	     107.060038
	 D(3,1,2,6)       =        -1.171252	     -67.107818
	 D(3,1,2,7)       =         3.034683	     173.874552
	 D(3,1,2,8)       =         0.929849	      53.276401
	 D(4,1,2,6)       =         0.884809	      50.695823
	 D(4,1,2,7)       =        -1.192440	     -68.321807
	 D(4,1,2,8)       =         2.985910	     171.080041
	 D(5,1,2,6)       =         3.023321	     173.223522
	 D(5,1,2,7)       =         0.946071	      54.205892
	 D(5,1,2,8)       =        -1.158764	     -66.392260

	Current energy   :       -79.8247624676

	Energy change for the previous step:
		Projected    :        -0.0123405747
		Actual       :        -0.0039915599

	Performing BFGS update.
	Previous computed or guess Hessian on step 1.
	Steps to be used in Hessian update: 1
	Taking RFO optimization step.
	Going to follow RFO solution 1.
	Using RFO vector 1.
	Norm of target step-size    0.18282
	Projected energy change by RFO approximation:        -0.0006104986

	Back-transformation to cartesian coordinates...
	Could not converge backtransformation.
	Using first guess instead.

	--- Internal Coordinate Step in ANG or DEG, aJ/ANG or AJ/DEG ---
	 ---------------------------------------------------------------------------
	   Coordinate                Previous        Force       Change         New 
	   ----------                --------       ------       ------       ------
	    1 R(1,2)          =      1.531435    -0.030249    -0.005689     1.525746
	    2 R(1,3)          =      1.097842    -0.019143    -0.004708     1.093135
	    3 R(1,4)          =      1.096533    -0.018744    -0.002704     1.093829
	    4 R(1,5)          =      1.091419     0.004727     0.001054     1.092473
	    5 R(2,6)          =      1.099584    -0.031896    -0.007434     1.092150
	    6 R(2,7)          =      1.095129    -0.007982    -0.001432     1.093697
	    7 R(2,8)          =      1.092565     0.001962     0.000394     1.092959
	    8 B(1,2,6)        =    110.798444     0.000040     0.494271   111.292716
	    9 B(1,2,7)        =    112.186106    -0.000162    -0.883984   111.302121
	   10 B(1,2,8)        =    112.236444    -0.000128    -0.896036   111.340409
	   11 B(2,1,3)        =    110.709347    -0.000007     0.548117   111.257464
	   12 B(2,1,4)        =    110.940923     0.000063     0.234580   111.175503
	   13 B(2,1,5)        =    112.577627    -0.000146    -1.185439   111.392188
	   14 B(3,1,4)        =    106.325739     0.000073     1.094997   107.420736
	   15 B(3,1,5)        =    106.962553     0.000096     0.771157   107.733710
	   16 B(4,1,5)        =    109.055464    -0.000068    -1.384562   107.670902
	   17 B(6,2,7)        =    106.607291     0.000106     0.974588   107.581879
	   18 B(6,2,8)        =    107.655793     0.000026    -0.119603   107.536190
	   19 B(7,2,8)        =    107.060038     0.000139     0.530771   107.590809
	   20 D(3,1,2,6)      =    -67.107818     0.000003     3.174796   -63.933021
	   21 D(3,1,2,7)      =    173.874552    -0.000010     2.196249   176.070801
	   22 D(3,1,2,8)      =     53.276401    -0.000003     2.754664    56.031065
	   23 D(4,1,2,6)      =     50.695823     0.000032     5.054612    55.750435
	   24 D(4,1,2,7)      =    -68.321807     0.000019     4.076064   -64.245743
	   25 D(4,1,2,8)      =    171.080041     0.000026     4.634480   175.714521
	   26 D(5,1,2,6)      =    173.223522    -0.000002     2.617511   175.841033
	   27 D(5,1,2,7)      =     54.205892    -0.000014     1.638964    55.844855
	   28 D(5,1,2,8)      =    -66.392260    -0.000008     2.197379   -64.194880
	 ---------------------------------------------------------------------------
	Successfully symmetrized geometry.

  ==> Convergence Check <==

  Measures of convergence in internal coordinates in au.
  Criteria marked as inactive (o), active & met (*), and active & unmet ( ).
  ---------------------------------------------------------------------------------------------
   Step     Total Energy     Delta E     MAX Force     RMS Force      MAX Disp      RMS Disp   
  ---------------------------------------------------------------------------------------------
    Convergence Criteria    1.00e-06 *    3.00e-04 *             o    1.20e-03 *             o
  ---------------------------------------------------------------------------------------------
      2     -79.82476247   -3.99e-03      3.87e-03      1.57e-03 o    8.82e-02      3.47e-02 o  ~
  ---------------------------------------------------------------------------------------------

	Writing optimization data to binary file.
	Structure for next step:
	Cartesian Geometry (in Angstrom)
	    C    -0.7613174988   0.0103780460  -0.0107062279
	    C     0.7640515278  -0.0029931062   0.0204428655
	    H    -1.1794026257  -0.1308832221   0.9893905769
	    H    -1.1403878428   0.9627025731  -0.3926030361
	    H    -1.1537857202  -0.7833456323  -0.6506035073
	    H     1.1562322503   0.8347851358   0.6010580353
	    H     1.1826849138   0.0688367780  -0.9874066076
	    H     1.1446133445  -0.9229785793   0.4713966679
			--------------------------
			 OPTKING Finished Execution 
			--------------------------

    Structure for next step:
    Molecular point group: c1
    Full point group: C1

    Geometry (in Angstrom), charge = 0, multiplicity = 1:

    C           -0.762743286124     0.006452051128    -0.015642375259
    C            0.762625740482    -0.006919101085     0.015506718225
    H           -1.180828413028    -0.134809216962     0.984454429604
    H           -1.141813630142     0.958776578259    -0.397539183457
    H           -1.155211507559    -0.787271627222    -0.655539654641
    H            1.154806462903     0.830859140874     0.596121887961
    H            1.181259126486     0.064910783097    -0.992342754959
    H            1.143187557153    -0.926904574230     0.466460520544

gradient() will perform analytic gradient computation.

*** tstart() called on d-snes-l-dc-01
*** at Fri Sep 21 14:04:50 2018

   => Loading Basis Set <=

    Name: 6-311++G(D,P)
    Role: ORBITAL
    Keyword: BASIS
    atoms 1-2 entry C          line   119 file /home/b6056633/anaconda3/share/psi4/basis/6-311ppg_d_p_.gbs 
    atoms 3-8 entry H          line    42 file /home/b6056633/anaconda3/share/psi4/basis/6-311ppg_d_p_.gbs 


         ---------------------------------------------------------
                                   SCF
            by Justin Turney, Rob Parrish, Andy Simmonett
                             and Daniel Smith
                              RKS Reference
                        4 Threads,   1907 MiB Core
         ---------------------------------------------------------

  ==> Geometry <==

    Molecular point group: c1
    Full point group: C1

    Geometry (in Angstrom), charge = 0, multiplicity = 1:

       Center              X                  Y                   Z               Mass       
    ------------   -----------------  -----------------  -----------------  -----------------
         C           -0.762743286124     0.006452051128    -0.015642375259    12.000000000000
         C            0.762625740482    -0.006919101085     0.015506718225    12.000000000000
         H           -1.180828413028    -0.134809216962     0.984454429604     1.007825032070
         H           -1.141813630142     0.958776578259    -0.397539183457     1.007825032070
         H           -1.155211507559    -0.787271627222    -0.655539654641     1.007825032070
         H            1.154806462903     0.830859140874     0.596121887961     1.007825032070
         H            1.181259126486     0.064910783097    -0.992342754959     1.007825032070
         H            1.143187557153    -0.926904574230     0.466460520544     1.007825032070

  Running in c1 symmetry.

  Rotational constants: A =      2.68785  B =      0.66802  C =      0.66791 [cm^-1]
  Rotational constants: A =  80579.69852  B =  20026.71129  C =  20023.42480 [MHz]
  Nuclear repulsion =   42.238172138500140

  Charge       = 0
  Multiplicity = 1
  Electrons    = 18
  Nalpha       = 9
  Nbeta        = 9

  ==> Algorithm <==

  SCF Algorithm Type is DF.
  DIIS enabled.
  MOM disabled.
  Fractional occupation disabled.
  Guess Type is READ.
  Energy threshold   = 1.00e-08
  Density threshold  = 1.00e-08
  Integral threshold = 0.00e+00

  ==> Primary Basis <==

  Basis Set: 6-311++G(D,P)
    Blend: 6-311++G(D,P)
    Number of shells: 50
    Number of basis function: 86
    Number of Cartesian functions: 88
    Spherical Harmonics?: true
    Max angular momentum: 2

  ==> DFT Potential <==

   => Composite Functional: WB97X-D <= 

    wB97X-D Hyb-GGA Exchange-Correlation Functional

    J.-D. Chai and M. Head-Gordon, Phys. Chem. Chem. Phys. 10, 6615 (2008)

    Deriv               =              1
    GGA                 =           TRUE
    Meta                =          FALSE

    Exchange Hybrid     =           TRUE
    MP2 Hybrid          =          FALSE

   => Exchange-Correlation Functionals <=

    1.0000   wB97D range-separated functional

   => Exact (HF) Exchange <=

    0.7780            HF,LR [omega = 0.2000]
    0.2220               HF 

   => Molecular Quadrature <=

    Radial Scheme       =       TREUTLER
    Pruning Scheme      =           FLAT
    Nuclear Scheme      =       TREUTLER

    BS radius alpha     =              1
    Pruning alpha       =              1
    Radial Points       =             75
    Spherical Points    =            302
    Total Points        =         181200
    Total Blocks        =           1422
    Max Points          =            256
    Max Functions       =             86

   => -CHG: Empirical Dispersion <=

    Chai and Head-Gordon Dispersion Correction
    Chai, J.-D.; Head-Gordon, M. (2010), J. Chem. Phys., 132: 6615-6620

        S6 =   1.000000E+00

   => Loading Basis Set <=

    Name: (6-311++G(D,P) AUX)
    Role: JKFIT
    Keyword: DF_BASIS_SCF
    atoms 1-2 entry C          line   162 file /home/b6056633/anaconda3/share/psi4/basis/aug-cc-pvtz-jkfit.gbs 
    atoms 3-8 entry H          line    70 file /home/b6056633/anaconda3/share/psi4/basis/aug-cc-pvtz-jkfit.gbs 

  Reading orbitals from file 180, no projection.

  ==> Pre-Iterations <==

   -------------------------------------------------------
    Irrep   Nso     Nmo     Nalpha   Nbeta   Ndocc  Nsocc
   -------------------------------------------------------
     A         86      86       0       0       0       0
   -------------------------------------------------------
    Total      86      86       9       9       9       0
   -------------------------------------------------------

  ==> Integral Setup <==

  ==> DiskDFJK: Density-Fitted J/K Matrices <==

    J tasked:                  Yes
    K tasked:                  Yes
    wK tasked:                 Yes
    Omega:               2.000E-01
    OpenMP threads:              4
    Integrals threads:           4
    Memory (MB):              1430
    Algorithm:                Core
    Integral Cache:           NONE
    Schwarz Cutoff:          1E-12
    Fitting Condition:       1E-12

   => Auxiliary Basis Set <=

  Basis Set: (6-311++G(D,P) AUX)
    Blend: AUG-CC-PVTZ-JKFIT
    Number of shells: 144
    Number of basis function: 484
    Number of Cartesian functions: 592
    Spherical Harmonics?: true
    Max angular momentum: 4

  Minimum eigenvalue in the overlap matrix is 1.4794050960E-04.
  Using Symmetric Orthogonalization.

  SCF Guess: Orbitals guess was supplied from a previous computation.

  ==> Iterations <==

                           Total Energy        Delta E     RMS |[F,P]|

   @DF-RKS iter   0:   -79.82902145556224   -7.98290e+01   6.31262e-04 
   @DF-RKS iter   1:   -79.82509077095789    3.93068e-03   1.10995e-04 
   @DF-RKS iter   2:   -79.82511568268477   -2.49117e-05   3.88696e-05 DIIS
   @DF-RKS iter   3:   -79.82511787727724   -2.19459e-06   1.78274e-05 DIIS
   @DF-RKS iter   4:   -79.82511832046686   -4.43190e-07   4.76595e-06 DIIS
   @DF-RKS iter   5:   -79.82511834681230   -2.63454e-08   6.76438e-07 DIIS
   @DF-RKS iter   6:   -79.82511834764153   -8.29232e-10   8.62021e-08 DIIS
   @DF-RKS iter   7:   -79.82511834765791   -1.63709e-11   2.20661e-08 DIIS
   @DF-RKS iter   8:   -79.82511834765852   -6.11067e-13   8.73444e-09 DIIS

  ==> Post-Iterations <==

    Orbital Energies [Eh]
    ---------------------

    Doubly Occupied:                                                      

       1A    -10.268893     2A    -10.268651     3A     -0.852401  
       4A     -0.710407     5A     -0.521916     6A     -0.521494  
       7A     -0.451415     8A     -0.424662     9A     -0.424149  

    Virtual:                                                              

      10A      0.044718    11A      0.061704    12A      0.071009  
      13A      0.071045    14A      0.102189    15A      0.102222  
      16A      0.140180    17A      0.146993    18A      0.147068  
      19A      0.174494    20A      0.178566    21A      0.194945  
      22A      0.198526    23A      0.198547    24A      0.246573  
      25A      0.246814    26A      0.280266    27A      0.280527  
      28A      0.326031    29A      0.367147    30A      0.375645  
      31A      0.510293    32A      0.510489    33A      0.531921  
      34A      0.535267    35A      0.535748    36A      0.731901  
      37A      0.732280    38A      0.734134    39A      0.745188  
      40A      0.745350    41A      0.793123    42A      0.815837  
      43A      0.927549    44A      0.983116    45A      1.042943  
      46A      1.043004    47A      1.344971    48A      1.345577  
      49A      1.552079    50A      1.559097    51A      1.630047  
      52A      1.630162    53A      1.648352    54A      1.648532  
      55A      1.655684    56A      1.786950    57A      1.787094  
      58A      1.842773    59A      1.940832    60A      1.941436  
      61A      2.185258    62A      2.211319    63A      2.219470  
      64A      2.220136    65A      2.417674    66A      2.417876  
      67A      2.522373    68A      2.567712    69A      2.568496  
      70A      2.585170    71A      2.697336    72A      2.698033  
      73A      2.728102    74A      2.728714    75A      2.762089  
      76A      2.764517    77A      2.935861    78A      2.948489  
      79A      3.312398    80A      3.892630    81A      3.894233  
      82A      3.931261    83A      3.933339    84A      4.331401  
      85A     24.049849    86A     24.139669  

    Final Occupation by Irrep:
              A 
    DOCC [     9 ]

  Energy converged.

  @DF-RKS Final Energy:   -79.82511834765852

   => Energetics <=

    Nuclear Repulsion Energy =             42.2381721385001399
    One-Electron Energy =                -189.3309262299708848
    Two-Electron Energy =                  76.0599262202241420
    DFT Exchange-Correlation Energy =      -8.7904299554281007
    Empirical Dispersion Energy =          -0.0018605209838223
    VV10 Nonlocal Energy =                  0.0000000000000000
    Total Energy =                        -79.8251183476585169



Properties will be evaluated at   0.000000,   0.000000,   0.000000 [a0]

Properties computed using the SCF density matrix

  Nuclear Dipole Moment: [e a0]
     X:     0.0013      Y:     0.0052      Z:     0.0015

  Electronic Dipole Moment: [e a0]
     X:    -0.0011      Y:    -0.0046      Z:    -0.0009

  Dipole Moment: [e a0]
     X:     0.0002      Y:     0.0006      Z:     0.0006     Total:     0.0009

  Dipole Moment: [D]
     X:     0.0005      Y:     0.0015      Z:     0.0016     Total:     0.0023


*** tstop() called on d-snes-l-dc-01 at Fri Sep 21 14:04:52 2018
Module time:
	user time   =      10.33 seconds =       0.17 minutes
	system time =       0.09 seconds =       0.00 minutes
	total time  =          2 seconds =       0.03 minutes
Total time:
	user time   =      44.59 seconds =       0.74 minutes
	system time =       0.58 seconds =       0.01 minutes
	total time  =         12 seconds =       0.20 minutes

*** tstart() called on d-snes-l-dc-01
*** at Fri Sep 21 14:04:52 2018


         ------------------------------------------------------------
                                   SCF GRAD                          
                          Rob Parrish, Justin Turney,                
                       Andy Simmonett, and Alex Sokolov              
         ------------------------------------------------------------

  ==> Geometry <==

    Molecular point group: c1
    Full point group: C1

    Geometry (in Angstrom), charge = 0, multiplicity = 1:

       Center              X                  Y                   Z               Mass       
    ------------   -----------------  -----------------  -----------------  -----------------
         C           -0.762743286124     0.006452051128    -0.015642375259    12.000000000000
         C            0.762625740482    -0.006919101085     0.015506718225    12.000000000000
         H           -1.180828413028    -0.134809216962     0.984454429604     1.007825032070
         H           -1.141813630142     0.958776578259    -0.397539183457     1.007825032070
         H           -1.155211507559    -0.787271627222    -0.655539654641     1.007825032070
         H            1.154806462903     0.830859140874     0.596121887961     1.007825032070
         H            1.181259126486     0.064910783097    -0.992342754959     1.007825032070
         H            1.143187557153    -0.926904574230     0.466460520544     1.007825032070

  Nuclear repulsion =   42.238172138500140

  ==> Basis Set <==

  Basis Set: 6-311++G(D,P)
    Blend: 6-311++G(D,P)
    Number of shells: 50
    Number of basis function: 86
    Number of Cartesian functions: 88
    Spherical Harmonics?: true
    Max angular momentum: 2

  ==> DFJKGrad: Density-Fitted SCF Gradients <==

    Gradient:                    1
    J tasked:                  Yes
    K tasked:                  Yes
    wK tasked:                 Yes
    Omega:               2.000E-01
    OpenMP threads:              4
    Integrals threads:           4
    Memory (MB):              1430
    Schwarz Cutoff:          0E+00
    Fitting Condition:       1E-12

   => Auxiliary Basis Set <=

  Basis Set: (6-311++G(D,P) AUX)
    Blend: AUG-CC-PVTZ-JKFIT
    Number of shells: 144
    Number of basis function: 484
    Number of Cartesian functions: 592
    Spherical Harmonics?: true
    Max angular momentum: 4

  ==> DFT Potential <==

   => Composite Functional: WB97X-D <= 

    wB97X-D Hyb-GGA Exchange-Correlation Functional

    J.-D. Chai and M. Head-Gordon, Phys. Chem. Chem. Phys. 10, 6615 (2008)

    Deriv               =              1
    GGA                 =           TRUE
    Meta                =          FALSE

    Exchange Hybrid     =           TRUE
    MP2 Hybrid          =          FALSE

   => Exchange-Correlation Functionals <=

    1.0000   wB97D range-separated functional

   => Exact (HF) Exchange <=

    0.7780            HF,LR [omega = 0.2000]
    0.2220               HF 

   => Molecular Quadrature <=

    Radial Scheme       =       TREUTLER
    Pruning Scheme      =           FLAT
    Nuclear Scheme      =       TREUTLER

    BS radius alpha     =              1
    Pruning alpha       =              1
    Radial Points       =             75
    Spherical Points    =            302
    Total Points        =         181200
    Total Blocks        =           1422
    Max Points          =            256
    Max Functions       =             86


  -Total Gradient:
     Atom            X                  Y                   Z
    ------   -----------------  -----------------  -----------------
       1        0.000125284806    -0.001138416187    -0.000285384029
       2       -0.000192778107     0.000481186789     0.000645373380
       3        0.000042178817     0.000061396242    -0.000067717646
       4        0.000004137919     0.000517640693     0.000318344519
       5        0.000135433926     0.000436566301    -0.000010621731
       6       -0.000198027740    -0.000407352352    -0.000578965707
       7        0.000123691437    -0.000212402258    -0.000273769104
       8       -0.000001118552     0.000337977428     0.000231253469


*** tstop() called on d-snes-l-dc-01 at Fri Sep 21 14:04:54 2018
Module time:
	user time   =       4.93 seconds =       0.08 minutes
	system time =       0.05 seconds =       0.00 minutes
	total time  =          2 seconds =       0.03 minutes
Total time:
	user time   =      49.52 seconds =       0.83 minutes
	system time =       0.63 seconds =       0.01 minutes
	total time  =         14 seconds =       0.23 minutes

			-----------------------------------------
			 OPTKING 2.0: for geometry optimizations 
			  - R.A. King,  Bethel University        
			-----------------------------------------

	Previous internal coordinate definitions found.
	---Fragment 1 Geometry and Gradient---
	 C          -1.4413759205        0.0121926096       -0.0295598053
	 C           1.4411537914       -0.0130752061        0.0293034507
	 H          -2.2314423106       -0.2547525002        1.8603492623
	 H          -2.1577150558        1.8118251555       -0.7512401838
	 H          -2.1830333748       -1.4877277676       -1.2387904165
	 H           2.1822679514        1.5700962313        1.1265071101
	 H           2.2322562410        0.1226636031       -1.8752560368
	 H           2.1603114015       -1.7515957966        0.8814826356
	             0.0001252848       -0.0011384162       -0.0002853840
	            -0.0001927781        0.0004811868        0.0006453734
	             0.0000421788        0.0000613962       -0.0000677176
	             0.0000041379        0.0005176407        0.0003183445
	             0.0001354339        0.0004365663       -0.0000106217
	            -0.0001980277       -0.0004073524       -0.0005789657
	             0.0001236914       -0.0002124023       -0.0002737691
	            -0.0000011186        0.0003379774        0.0002312535

	---Fragment 1 Intrafragment Coordinates---
	 - Coordinate -           - BOHR/RAD -       - ANG/DEG -
	 R(1,2)           =         2.883241	       1.525746
	 R(1,3)           =         2.065725	       1.093135
	 R(1,4)           =         2.067037	       1.093829
	 R(1,5)           =         2.064475	       1.092473
	 R(2,6)           =         2.063865	       1.092150
	 R(2,7)           =         2.066789	       1.093697
	 R(2,8)           =         2.065394	       1.092959
	 B(1,2,6)         =         1.942424	     111.292716
	 B(1,2,7)         =         1.942588	     111.302121
	 B(1,2,8)         =         1.943257	     111.340409
	 B(2,1,3)         =         1.941809	     111.257464
	 B(2,1,4)         =         1.940379	     111.175503
	 B(2,1,5)         =         1.944160	     111.392188
	 B(3,1,4)         =         1.874846	     107.420736
	 B(3,1,5)         =         1.880308	     107.733710
	 B(4,1,5)         =         1.879212	     107.670902
	 B(6,2,7)         =         1.877658	     107.581879
	 B(6,2,8)         =         1.876861	     107.536190
	 B(7,2,8)         =         1.877814	     107.590809
	 D(3,1,2,6)       =        -1.115842	     -63.933021
	 D(3,1,2,7)       =         3.073015	     176.070801
	 D(3,1,2,8)       =         0.977927	      56.031065
	 D(4,1,2,6)       =         0.973029	      55.750435
	 D(4,1,2,7)       =        -1.121300	     -64.245743
	 D(4,1,2,8)       =         3.066797	     175.714521
	 D(5,1,2,6)       =         3.069005	     175.841033
	 D(5,1,2,7)       =         0.974677	      55.844855
	 D(5,1,2,8)       =        -1.120412	     -64.194880

	Current energy   :       -79.8251183477

	Energy change for the previous step:
		Projected    :        -0.0006104986
		Actual       :        -0.0003558801

	Performing BFGS update.
	Previous computed or guess Hessian on step 1.
	Steps to be used in Hessian update: 2 1
	Taking RFO optimization step.
	Going to follow RFO solution 1.
	Using RFO vector 1.
	Norm of target step-size    0.13558
	Projected energy change by RFO approximation:        -0.0001302666

	Back-transformation to cartesian coordinates...
	Could not converge backtransformation.
	Using first guess instead.

	--- Internal Coordinate Step in ANG or DEG, aJ/ANG or AJ/DEG ---
	 ---------------------------------------------------------------------------
	   Coordinate                Previous        Force       Change         New 
	   ----------                --------       ------       ------       ------
	    1 R(1,2)          =      1.525746     0.002375    -0.000217     1.525528
	    2 R(1,3)          =      1.093135     0.000660     0.000101     1.093236
	    3 R(1,4)          =      1.093829    -0.002720    -0.000226     1.093602
	    4 R(1,5)          =      1.092473     0.002905     0.001048     1.093521
	    5 R(2,6)          =      1.092150     0.005760     0.001295     1.093445
	    6 R(2,7)          =      1.093697    -0.002316    -0.000314     1.093383
	    7 R(2,8)          =      1.092959     0.001502     0.000825     1.093784
	    8 B(1,2,6)        =    111.292716    -0.000002    -0.004363   111.288352
	    9 B(1,2,7)        =    111.302121    -0.000000    -0.087280   111.214842
	   10 B(1,2,8)        =    111.340409    -0.000006    -0.112647   111.227762
	   11 B(2,1,3)        =    111.257464     0.000001     0.025717   111.283181
	   12 B(2,1,4)        =    111.175503     0.000018     0.109753   111.285256
	   13 B(2,1,5)        =    111.392188    -0.000009    -0.188384   111.203804
	   14 B(3,1,4)        =    107.420736     0.000005     0.234855   107.655591
	   15 B(3,1,5)        =    107.733710    -0.000006    -0.025850   107.707859
	   16 B(4,1,5)        =    107.670902    -0.000009    -0.152054   107.518848
	   17 B(6,2,7)        =    107.581879     0.000002     0.108133   107.690012
	   18 B(6,2,8)        =    107.536190     0.000007     0.074259   107.610448
	   19 B(7,2,8)        =    107.590809     0.000001     0.035010   107.625820
	   20 D(3,1,2,6)      =    -63.933021     0.000000     2.421395   -61.511626
	   21 D(3,1,2,7)      =    176.070801     0.000000     2.346178   178.416979
	   22 D(3,1,2,8)      =     56.031065     0.000001     2.436599    58.467664
	   23 D(4,1,2,6)      =     55.750435     0.000005     2.809761    58.560195
	   24 D(4,1,2,7)      =    -64.245743     0.000004     2.734543   -61.511200
	   25 D(4,1,2,8)      =    175.714521     0.000005     2.824965   178.539485
	   26 D(5,1,2,6)      =    175.841033     0.000003     2.564262   178.405296
	   27 D(5,1,2,7)      =     55.844855     0.000003     2.489045    58.333900
	   28 D(5,1,2,8)      =    -64.194880     0.000004     2.579466   -61.615414
	 ---------------------------------------------------------------------------
	Successfully symmetrized geometry.

  ==> Convergence Check <==

  Measures of convergence in internal coordinates in au.
  Criteria marked as inactive (o), active & met (*), and active & unmet ( ).
  ---------------------------------------------------------------------------------------------
   Step     Total Energy     Delta E     MAX Force     RMS Force      MAX Disp      RMS Disp   
  ---------------------------------------------------------------------------------------------
    Convergence Criteria    1.00e-06 *    3.00e-04 *             o    1.20e-03 *             o
  ---------------------------------------------------------------------------------------------
      3     -79.82511835   -3.56e-04      6.99e-04      2.22e-04 o    4.93e-02      2.56e-02 o  ~
  ---------------------------------------------------------------------------------------------

	Writing optimization data to binary file.
	Structure for next step:
	Cartesian Geometry (in Angstrom)
	    C    -0.7623454787   0.0080387204  -0.0145493127
	    C     0.7628161943  -0.0063434751   0.0156482588
	    H    -1.1802626756  -0.1133532438   0.9883338433
	    H    -1.1425130865   0.9496281086  -0.4205645408
	    H    -1.1532378244  -0.8009018724  -0.6379321573
	    H     1.1557981518   0.8188641445   0.6158316595
	    H     1.1793812147   0.0871428863  -0.9909403960
	    H     1.1416455545  -0.9379812347   0.4456522332
			--------------------------
			 OPTKING Finished Execution 
			--------------------------

    Structure for next step:
    Molecular point group: c1
    Full point group: C1

    Geometry (in Angstrom), charge = 0, multiplicity = 1:

    C           -0.762560684219     0.007247680757    -0.015000971622
    C            0.762600988721    -0.007134514678     0.015196599863
    H           -1.180477881139    -0.114144283362     0.987882184362
    H           -1.142728292056     0.948837069021    -0.421016199787
    H           -1.153453029993    -0.801692912045    -0.638383816296
    H            1.155582946287     0.818073104898     0.615380000534
    H            1.179166009154     0.086351846666    -0.991392054963
    H            1.141430348941    -0.938772274293     0.445200574198

gradient() will perform analytic gradient computation.

*** tstart() called on d-snes-l-dc-01
*** at Fri Sep 21 14:04:54 2018

   => Loading Basis Set <=

    Name: 6-311++G(D,P)
    Role: ORBITAL
    Keyword: BASIS
    atoms 1-2 entry C          line   119 file /home/b6056633/anaconda3/share/psi4/basis/6-311ppg_d_p_.gbs 
    atoms 3-8 entry H          line    42 file /home/b6056633/anaconda3/share/psi4/basis/6-311ppg_d_p_.gbs 


         ---------------------------------------------------------
                                   SCF
            by Justin Turney, Rob Parrish, Andy Simmonett
                             and Daniel Smith
                              RKS Reference
                        4 Threads,   1907 MiB Core
         ---------------------------------------------------------

  ==> Geometry <==

    Molecular point group: c1
    Full point group: C1

    Geometry (in Angstrom), charge = 0, multiplicity = 1:

       Center              X                  Y                   Z               Mass       
    ------------   -----------------  -----------------  -----------------  -----------------
         C           -0.762560684219     0.007247680757    -0.015000971622    12.000000000000
         C            0.762600988721    -0.007134514678     0.015196599863    12.000000000000
         H           -1.180477881139    -0.114144283362     0.987882184362     1.007825032070
         H           -1.142728292056     0.948837069021    -0.421016199787     1.007825032070
         H           -1.153453029993    -0.801692912045    -0.638383816296     1.007825032070
         H            1.155582946287     0.818073104898     0.615380000534     1.007825032070
         H            1.179166009154     0.086351846666    -0.991392054963     1.007825032070
         H            1.141430348941    -0.938772274293     0.445200574198     1.007825032070

  Running in c1 symmetry.

  Rotational constants: A =      2.68405  B =      0.66828  C =      0.66815 [cm^-1]
  Rotational constants: A =  80465.75645  B =  20034.51902  C =  20030.59076 [MHz]
  Nuclear repulsion =   42.233408310416443

  Charge       = 0
  Multiplicity = 1
  Electrons    = 18
  Nalpha       = 9
  Nbeta        = 9

  ==> Algorithm <==

  SCF Algorithm Type is DF.
  DIIS enabled.
  MOM disabled.
  Fractional occupation disabled.
  Guess Type is READ.
  Energy threshold   = 1.00e-08
  Density threshold  = 1.00e-08
  Integral threshold = 0.00e+00

  ==> Primary Basis <==

  Basis Set: 6-311++G(D,P)
    Blend: 6-311++G(D,P)
    Number of shells: 50
    Number of basis function: 86
    Number of Cartesian functions: 88
    Spherical Harmonics?: true
    Max angular momentum: 2

  ==> DFT Potential <==

   => Composite Functional: WB97X-D <= 

    wB97X-D Hyb-GGA Exchange-Correlation Functional

    J.-D. Chai and M. Head-Gordon, Phys. Chem. Chem. Phys. 10, 6615 (2008)

    Deriv               =              1
    GGA                 =           TRUE
    Meta                =          FALSE

    Exchange Hybrid     =           TRUE
    MP2 Hybrid          =          FALSE

   => Exchange-Correlation Functionals <=

    1.0000   wB97D range-separated functional

   => Exact (HF) Exchange <=

    0.7780            HF,LR [omega = 0.2000]
    0.2220               HF 

   => Molecular Quadrature <=

    Radial Scheme       =       TREUTLER
    Pruning Scheme      =           FLAT
    Nuclear Scheme      =       TREUTLER

    BS radius alpha     =              1
    Pruning alpha       =              1
    Radial Points       =             75
    Spherical Points    =            302
    Total Points        =         181200
    Total Blocks        =           1422
    Max Points          =            256
    Max Functions       =             86

   => -CHG: Empirical Dispersion <=

    Chai and Head-Gordon Dispersion Correction
    Chai, J.-D.; Head-Gordon, M. (2010), J. Chem. Phys., 132: 6615-6620

        S6 =   1.000000E+00

   => Loading Basis Set <=

    Name: (6-311++G(D,P) AUX)
    Role: JKFIT
    Keyword: DF_BASIS_SCF
    atoms 1-2 entry C          line   162 file /home/b6056633/anaconda3/share/psi4/basis/aug-cc-pvtz-jkfit.gbs 
    atoms 3-8 entry H          line    70 file /home/b6056633/anaconda3/share/psi4/basis/aug-cc-pvtz-jkfit.gbs 

  Reading orbitals from file 180, no projection.

  ==> Pre-Iterations <==

   -------------------------------------------------------
    Irrep   Nso     Nmo     Nalpha   Nbeta   Ndocc  Nsocc
   -------------------------------------------------------
     A         86      86       0       0       0       0
   -------------------------------------------------------
    Total      86      86       9       9       9       0
   -------------------------------------------------------

  ==> Integral Setup <==

  ==> DiskDFJK: Density-Fitted J/K Matrices <==

    J tasked:                  Yes
    K tasked:                  Yes
    wK tasked:                 Yes
    Omega:               2.000E-01
    OpenMP threads:              4
    Integrals threads:           4
    Memory (MB):              1430
    Algorithm:                Core
    Integral Cache:           NONE
    Schwarz Cutoff:          1E-12
    Fitting Condition:       1E-12

   => Auxiliary Basis Set <=

  Basis Set: (6-311++G(D,P) AUX)
    Blend: AUG-CC-PVTZ-JKFIT
    Number of shells: 144
    Number of basis function: 484
    Number of Cartesian functions: 592
    Spherical Harmonics?: true
    Max angular momentum: 4

  Minimum eigenvalue in the overlap matrix is 1.4808989692E-04.
  Using Symmetric Orthogonalization.

  SCF Guess: Orbitals guess was supplied from a previous computation.

  ==> Iterations <==

                           Total Energy        Delta E     RMS |[F,P]|

   @DF-RKS iter   0:   -79.82397140609622   -7.98240e+01   3.58372e-04 
   @DF-RKS iter   1:   -79.82516150341029   -1.19010e-03   6.82517e-05 
   @DF-RKS iter   2:   -79.82517230221619   -1.07988e-05   1.73078e-05 DIIS
   @DF-RKS iter   3:   -79.82517318860177   -8.86386e-07   1.10568e-05 DIIS
   @DF-RKS iter   4:   -79.82517332605204   -1.37450e-07   1.07536e-06 DIIS
   @DF-RKS iter   5:   -79.82517332858284   -2.53080e-09   2.24095e-07 DIIS
   @DF-RKS iter   6:   -79.82517332867445   -9.16174e-11   2.98207e-08 DIIS
   @DF-RKS iter   7:   -79.82517332867613   -1.67688e-12   5.16405e-09 DIIS

  ==> Post-Iterations <==

    Orbital Energies [Eh]
    ---------------------

    Doubly Occupied:                                                      

       1A    -10.269021     2A    -10.268791     3A     -0.852406  
       4A     -0.710139     5A     -0.521905     6A     -0.521582  
       7A     -0.451237     8A     -0.424542     9A     -0.424206  

    Virtual:                                                              

      10A      0.044705    11A      0.061742    12A      0.070973  
      13A      0.071003    14A      0.102196    15A      0.102210  
      16A      0.140143    17A      0.146954    18A      0.146981  
      19A      0.174482    20A      0.178517    21A      0.195010  
      22A      0.198511    23A      0.198511    24A      0.246851  
      25A      0.247024    26A      0.279793    27A      0.279907  
      28A      0.325616    29A      0.367080    30A      0.375894  
      31A      0.510589    32A      0.510831    33A      0.531894  
      34A      0.534921    35A      0.535046    36A      0.731851  
      37A      0.732041    38A      0.734237    39A      0.745072  
      40A      0.745093    41A      0.793008    42A      0.814991  
      43A      0.927979    44A      0.982451    45A      1.043088  
      46A      1.043370    47A      1.345269    48A      1.345469  
      49A      1.551233    50A      1.558439    51A      1.630340  
      52A      1.630503    53A      1.647372    54A      1.647500  
      55A      1.656115    56A      1.787118    57A      1.787218  
      58A      1.841856    59A      1.940451    60A      1.940538  
      61A      2.183908    62A      2.210272    63A      2.219522  
      64A      2.220048    65A      2.416872    66A      2.417080  
      67A      2.522052    68A      2.568006    69A      2.568824  
      70A      2.584343    71A      2.698231    72A      2.698673  
      73A      2.729003    74A      2.729469    75A      2.760414  
      76A      2.761395    77A      2.934756    78A      2.950132  
      79A      3.313983    80A      3.901973    81A      3.903685  
      82A      3.920731    83A      3.921992    84A      4.330208  
      85A     24.048895    86A     24.138362  

    Final Occupation by Irrep:
              A 
    DOCC [     9 ]

  Energy converged.

[...]
                                   SCF GRAD                          
                          Rob Parrish, Justin Turney,                
                       Andy Simmonett, and Alex Sokolov              
         ------------------------------------------------------------

  ==> Geometry <==

    Molecular point group: c1
    Full point group: C1

    Geometry (in Angstrom), charge = 0, multiplicity = 1:

       Center              X                  Y                   Z               Mass       
    ------------   -----------------  -----------------  -----------------  -----------------
         C           -0.762892346655     0.007308317806    -0.015255953729    12.000000000000
         C            0.762897593266    -0.007300288738     0.015242117988    12.000000000000
         H           -1.181111559011    -0.100510926353     0.989031790923     1.007825032070
         H           -1.142401408198     0.943715948966    -0.432674721842     1.007825032070
         H           -1.155427577102    -0.810096571759    -0.625888826147     1.007825032070
         H            1.155248231050     0.809984226502     0.626106179249     1.007825032070
         H            1.181324122260     0.101703746588    -0.990461811517     1.007825032070
         H            1.142305720503    -0.944892024687     0.434052129133     1.007825032070

  Nuclear repulsion =   42.219590435784411

  ==> Basis Set <==

  Basis Set: 6-311++G(D,P)
    Blend: 6-311++G(D,P)
    Number of shells: 50
    Number of basis function: 86
    Number of Cartesian functions: 88
    Spherical Harmonics?: true
    Max angular momentum: 2

  ==> DFJKGrad: Density-Fitted SCF Gradients <==

    Gradient:                    1
    J tasked:                  Yes
    K tasked:                  Yes
    wK tasked:                 Yes
    Omega:               2.000E-01
    OpenMP threads:              4
    Integrals threads:           4
    Memory (MB):              1430
    Schwarz Cutoff:          0E+00
    Fitting Condition:       1E-12

   => Auxiliary Basis Set <=

  Basis Set: (6-311++G(D,P) AUX)
    Blend: AUG-CC-PVTZ-JKFIT
    Number of shells: 144
    Number of basis function: 484
    Number of Cartesian functions: 592
    Spherical Harmonics?: true
    Max angular momentum: 4

  ==> DFT Potential <==

   => Composite Functional: WB97X-D <= 

    wB97X-D Hyb-GGA Exchange-Correlation Functional

    J.-D. Chai and M. Head-Gordon, Phys. Chem. Chem. Phys. 10, 6615 (2008)

    Deriv               =              1
    GGA                 =           TRUE
    Meta                =          FALSE

    Exchange Hybrid     =           TRUE
    MP2 Hybrid          =          FALSE

   => Exchange-Correlation Functionals <=

    1.0000   wB97D range-separated functional

   => Exact (HF) Exchange <=

    0.7780            HF,LR [omega = 0.2000]
    0.2220               HF 

   => Molecular Quadrature <=

    Radial Scheme       =       TREUTLER
    Pruning Scheme      =           FLAT
    Nuclear Scheme      =       TREUTLER

    BS radius alpha     =              1
    Pruning alpha       =              1
    Radial Points       =             75
    Spherical Points    =            302
    Total Points        =         181200
    Total Blocks        =           1436
    Max Points          =            256
    Max Functions       =             86


  -Total Gradient:
     Atom            X                  Y                   Z
    ------   -----------------  -----------------  -----------------
       1       -0.000002331252     0.000009231037     0.000049610065
       2       -0.000505564114     0.000584413144     0.000352588672
       3       -0.000043265050    -0.000024868593    -0.000039432584
       4        0.000006054615     0.000033365903     0.000044359676
       5        0.000018388178    -0.000008019799     0.000005678738
       6       -0.000034059811    -0.000011645596    -0.000011193680
       7        0.000328990489     0.000274167608    -0.000888071625
       8        0.000231537977    -0.000856824669     0.000487574498


*** tstop() called on d-snes-l-dc-01 at Fri Sep 21 14:10:58 2018
Module time:
	user time   =       4.86 seconds =       0.08 minutes
	system time =       0.04 seconds =       0.00 minutes
	total time  =          1 seconds =       0.02 minutes
Total time:
	user time   =    1401.16 seconds =      23.35 minutes
	system time =      12.23 seconds =       0.20 minutes
	total time  =        378 seconds =       6.30 minutes

  //>>>>>>>>>>>>>>>>>>>>>>>>>>>>>>>>>>>//
  //   Loading displacement 37 of 37   //
  //<<<<<<<<<<<<<<<<<<<<<<<<<<<<<<<<<<<//
gradient() will perform analytic gradient computation.

*** tstart() called on d-snes-l-dc-01
*** at Fri Sep 21 14:10:58 2018

   => Loading Basis Set <=

    Name: 6-311++G(D,P)
    Role: ORBITAL
    Keyword: BASIS
    atoms 1-2 entry C          line   119 file /home/b6056633/anaconda3/share/psi4/basis/6-311ppg_d_p_.gbs 
    atoms 3-8 entry H          line    42 file /home/b6056633/anaconda3/share/psi4/basis/6-311ppg_d_p_.gbs 


         ---------------------------------------------------------
                                   SCF
            by Justin Turney, Rob Parrish, Andy Simmonett
                             and Daniel Smith
                              RKS Reference
                        4 Threads,   1907 MiB Core
         ---------------------------------------------------------

  ==> Geometry <==

    Molecular point group: c1
    Full point group: C1

    Geometry (in Angstrom), charge = 0, multiplicity = 1:

       Center              X                  Y                   Z               Mass       
    ------------   -----------------  -----------------  -----------------  -----------------
         C           -0.762892346655     0.007308317806    -0.015255953729    12.000000000000
         C            0.762897593266    -0.007300288738     0.015242117988    12.000000000000
         H           -1.181111559011    -0.100510926353     0.989031790923     1.007825032070
         H           -1.142401408198     0.943715948966    -0.432674721842     1.007825032070
         H           -1.155427577102    -0.810096571759    -0.625888826147     1.007825032070
         H            1.155248231050     0.809984226502     0.626106179249     1.007825032070
         H            1.181282994992     0.100600584406    -0.988960305443     1.007825032070
         H            1.142346847771    -0.943788862505     0.432550623059     1.007825032070

  Running in c1 symmetry.

  Rotational constants: A =      2.68669  B =      0.66770  C =      0.66766 [cm^-1]
  Rotational constants: A =  80545.08078  B =  20017.13915  C =  20016.07496 [MHz]
  Nuclear repulsion =   42.229761163088057

  Charge       = 0
  Multiplicity = 1
  Electrons    = 18
  Nalpha       = 9
  Nbeta        = 9

  ==> Algorithm <==

  SCF Algorithm Type is DF.
  DIIS enabled.
  MOM disabled.
  Fractional occupation disabled.
  Guess Type is SAD.
  Energy threshold   = 1.00e-08
  Density threshold  = 1.00e-08
  Integral threshold = 0.00e+00

  ==> Primary Basis <==

  Basis Set: 6-311++G(D,P)
    Blend: 6-311++G(D,P)
    Number of shells: 50
    Number of basis function: 86
    Number of Cartesian functions: 88
    Spherical Harmonics?: true
    Max angular momentum: 2

  ==> DFT Potential <==

   => Composite Functional: WB97X-D <= 

    wB97X-D Hyb-GGA Exchange-Correlation Functional

    J.-D. Chai and M. Head-Gordon, Phys. Chem. Chem. Phys. 10, 6615 (2008)

    Deriv               =              1
    GGA                 =           TRUE
    Meta                =          FALSE

    Exchange Hybrid     =           TRUE
    MP2 Hybrid          =          FALSE

   => Exchange-Correlation Functionals <=

    1.0000   wB97D range-separated functional

   => Exact (HF) Exchange <=

    0.7780            HF,LR [omega = 0.2000]
    0.2220               HF 

   => Molecular Quadrature <=

    Radial Scheme       =       TREUTLER
    Pruning Scheme      =           FLAT
    Nuclear Scheme      =       TREUTLER

    BS radius alpha     =              1
    Pruning alpha       =              1
    Radial Points       =             75
    Spherical Points    =            302
    Total Points        =         181200
    Total Blocks        =           1416
    Max Points          =            256
    Max Functions       =             86

   => -CHG: Empirical Dispersion <=

    Chai and Head-Gordon Dispersion Correction
    Chai, J.-D.; Head-Gordon, M. (2010), J. Chem. Phys., 132: 6615-6620

        S6 =   1.000000E+00

   => Loading Basis Set <=

    Name: (6-311++G(D,P) AUX)
    Role: JKFIT
    Keyword: DF_BASIS_SCF
    atoms 1-2 entry C          line   162 file /home/b6056633/anaconda3/share/psi4/basis/aug-cc-pvtz-jkfit.gbs 
    atoms 3-8 entry H          line    70 file /home/b6056633/anaconda3/share/psi4/basis/aug-cc-pvtz-jkfit.gbs 

  ==> Pre-Iterations <==

   -------------------------------------------------------
    Irrep   Nso     Nmo     Nalpha   Nbeta   Ndocc  Nsocc
   -------------------------------------------------------
     A         86      86       0       0       0       0
   -------------------------------------------------------
    Total      86      86       9       9       9       0
   -------------------------------------------------------

  ==> Integral Setup <==

  ==> DiskDFJK: Density-Fitted J/K Matrices <==

    J tasked:                  Yes
    K tasked:                  Yes
    wK tasked:                 Yes
    Omega:               2.000E-01
    OpenMP threads:              4
    Integrals threads:           4
    Memory (MB):              1430
    Algorithm:                Core
    Integral Cache:           NONE
    Schwarz Cutoff:          1E-12
    Fitting Condition:       1E-12

   => Auxiliary Basis Set <=

  Basis Set: (6-311++G(D,P) AUX)
    Blend: AUG-CC-PVTZ-JKFIT
    Number of shells: 144
    Number of basis function: 484
    Number of Cartesian functions: 592
    Spherical Harmonics?: true
    Max angular momentum: 4

  Minimum eigenvalue in the overlap matrix is 1.4843977282E-04.
  Using Symmetric Orthogonalization.

  SCF Guess: Superposition of Atomic Densities via on-the-fly atomic UHF.

  ==> Iterations <==

                           Total Energy        Delta E     RMS |[F,P]|

   @DF-RKS iter   0:   -80.20680754027806   -8.02068e+01   5.40781e-02 
   @DF-RKS iter   1:   -79.80125246846298    4.05555e-01   4.57471e-03 
   @DF-RKS iter   2:   -79.81792081150783   -1.66683e-02   2.84944e-03 DIIS
   @DF-RKS iter   3:   -79.82490373521100   -6.98292e-03   5.06339e-04 DIIS
   @DF-RKS iter   4:   -79.82517586850517   -2.72133e-04   6.56534e-05 DIIS
   @DF-RKS iter   5:   -79.82518514871118   -9.28021e-06   1.25128e-05 DIIS
   @DF-RKS iter   6:   -79.82518552238840   -3.73677e-07   1.78945e-06 DIIS
   @DF-RKS iter   7:   -79.82518553324444   -1.08560e-08   3.25906e-07 DIIS
   @DF-RKS iter   8:   -79.82518553347194   -2.27502e-10   5.51110e-08 DIIS
   @DF-RKS iter   9:   -79.82518553348326   -1.13261e-11   7.87191e-09 DIIS

  ==> Post-Iterations <==

    Orbital Energies [Eh]
    ---------------------

    Doubly Occupied:                                                      

       1A    -10.268983     2A    -10.268757     3A     -0.852299  
       4A     -0.710372     5A     -0.521671     6A     -0.521613  
       7A     -0.451311     8A     -0.424476     9A     -0.424429  

    Virtual:                                                              

      10A      0.044706    11A      0.061720    12A      0.070997  
      13A      0.071003    14A      0.102199    15A      0.102203  
      16A      0.140175    17A      0.146996    18A      0.147006  
      19A      0.174465    20A      0.178520    21A      0.194975  
      22A      0.198511    23A      0.198515    24A      0.247015  
      25A      0.247058    26A      0.279847    27A      0.279852  
      28A      0.325736    29A      0.366820    30A      0.376111  
      31A      0.510572    32A      0.510646    33A      0.531983  
      34A      0.535119    35A      0.535192    36A      0.731988  
      37A      0.732021    38A      0.733873    39A      0.745213  
      40A      0.745228    41A      0.793168    42A      0.815460  
      43A      0.928122    44A      0.982543    45A      1.043220  
      46A      1.043367    47A      1.344918    48A      1.344999  
      49A      1.551711    50A      1.558881    51A      1.631184  
      52A      1.631280    53A      1.647069    54A      1.647221  
      55A      1.655471    56A      1.787150    57A      1.787194  
      58A      1.842295    59A      1.940099    60A      1.940253  
      61A      2.184606    62A      2.211039    63A      2.220125  
      64A      2.220224    65A      2.416812    66A      2.417012  
      67A      2.522519    68A      2.568223    69A      2.568482  
      70A      2.584577    71A      2.698381    72A      2.698449  
      73A      2.728912    74A      2.728981    75A      2.761606  
      76A      2.761717    77A      2.934296    78A      2.949255  
      79A      3.313320    80A      3.905428    81A      3.905983  
      82A      3.918990    83A      3.919210    84A      4.330493  
      85A     24.048898    86A     24.139464  

    Final Occupation by Irrep:
              A 
    DOCC [     9 ]

  Energy converged.

  @DF-RKS Final Energy:   -79.82518553348326

   => Energetics <=

    Nuclear Repulsion Energy =             42.2297611630880567
    One-Electron Energy =                -189.3146447191483901
    Two-Electron Energy =                  76.0515748458382603
    DFT Exchange-Correlation Energy =      -8.7900150068056444
    Empirical Dispersion Energy =          -0.0018618164555448
    VV10 Nonlocal Energy =                  0.0000000000000000
    Total Energy =                        -79.8251855334832641



Properties will be evaluated at   0.000000,   0.000000,   0.000000 [a0]

Properties computed using the SCF density matrix

  Nuclear Dipole Moment: [e a0]
     X:    -0.0001      Y:    -0.0001      Z:     0.0002

  Electronic Dipole Moment: [e a0]
     X:     0.0001      Y:     0.0001      Z:    -0.0001

  Dipole Moment: [e a0]
     X:     0.0000      Y:    -0.0000      Z:     0.0000     Total:     0.0000

  Dipole Moment: [D]
     X:     0.0000      Y:    -0.0000      Z:     0.0001     Total:     0.0001


*** tstop() called on d-snes-l-dc-01 at Fri Sep 21 14:11:01 2018
Module time:
	user time   =      11.86 seconds =       0.20 minutes
	system time =       0.08 seconds =       0.00 minutes
	total time  =          3 seconds =       0.05 minutes
Total time:
	user time   =    1413.06 seconds =      23.55 minutes
	system time =      12.31 seconds =       0.21 minutes
	total time  =        381 seconds =       6.35 minutes

*** tstart() called on d-snes-l-dc-01
*** at Fri Sep 21 14:11:01 2018


         ------------------------------------------------------------
                                   SCF GRAD                          
                          Rob Parrish, Justin Turney,                
                       Andy Simmonett, and Alex Sokolov              
         ------------------------------------------------------------

  ==> Geometry <==

    Molecular point group: c1
    Full point group: C1

    Geometry (in Angstrom), charge = 0, multiplicity = 1:

       Center              X                  Y                   Z               Mass       
    ------------   -----------------  -----------------  -----------------  -----------------
         C           -0.762892346655     0.007308317806    -0.015255953729    12.000000000000
         C            0.762897593266    -0.007300288738     0.015242117988    12.000000000000
         H           -1.181111559011    -0.100510926353     0.989031790923     1.007825032070
         H           -1.142401408198     0.943715948966    -0.432674721842     1.007825032070
         H           -1.155427577102    -0.810096571759    -0.625888826147     1.007825032070
         H            1.155248231050     0.809984226502     0.626106179249     1.007825032070
         H            1.181282994992     0.100600584406    -0.988960305443     1.007825032070
         H            1.142346847771    -0.943788862505     0.432550623059     1.007825032070

  Nuclear repulsion =   42.229761163088057

  ==> Basis Set <==

  Basis Set: 6-311++G(D,P)
    Blend: 6-311++G(D,P)
    Number of shells: 50
    Number of basis function: 86
    Number of Cartesian functions: 88
    Spherical Harmonics?: true
    Max angular momentum: 2

  ==> DFJKGrad: Density-Fitted SCF Gradients <==

    Gradient:                    1
    J tasked:                  Yes
    K tasked:                  Yes
    wK tasked:                 Yes
    Omega:               2.000E-01
    OpenMP threads:              4
    Integrals threads:           4
    Memory (MB):              1430
    Schwarz Cutoff:          0E+00
    Fitting Condition:       1E-12

   => Auxiliary Basis Set <=

  Basis Set: (6-311++G(D,P) AUX)
    Blend: AUG-CC-PVTZ-JKFIT
    Number of shells: 144
    Number of basis function: 484
    Number of Cartesian functions: 592
    Spherical Harmonics?: true
    Max angular momentum: 4

  ==> DFT Potential <==

   => Composite Functional: WB97X-D <= 

    wB97X-D Hyb-GGA Exchange-Correlation Functional

    J.-D. Chai and M. Head-Gordon, Phys. Chem. Chem. Phys. 10, 6615 (2008)

    Deriv               =              1
    GGA                 =           TRUE
    Meta                =          FALSE

    Exchange Hybrid     =           TRUE
    MP2 Hybrid          =          FALSE

   => Exchange-Correlation Functionals <=

    1.0000   wB97D range-separated functional

   => Exact (HF) Exchange <=

    0.7780            HF,LR [omega = 0.2000]
    0.2220               HF 

   => Molecular Quadrature <=

    Radial Scheme       =       TREUTLER
    Pruning Scheme      =           FLAT
    Nuclear Scheme      =       TREUTLER

    BS radius alpha     =              1
    Pruning alpha       =              1
    Radial Points       =             75
    Spherical Points    =            302
    Total Points        =         181200
    Total Blocks        =           1416
    Max Points          =            256
    Max Functions       =             86


  -Total Gradient:
     Atom            X                  Y                   Z
    ------   -----------------  -----------------  -----------------
       1        0.000000762845     0.000021005829    -0.000001908105
       2        0.000012469441     0.000007174490     0.000002276405
       3       -0.000050753111    -0.000033387173    -0.000005363114
       4        0.000054912237     0.000027782058    -0.000007032635
       5       -0.000014535323     0.000017527166     0.000026284461
       6       -0.000004936767    -0.000029471619    -0.000026469316
       7        0.000057966824     0.000022317935     0.000009805722
       8       -0.000055254197    -0.000032718272     0.000002144116


*** tstop() called on d-snes-l-dc-01 at Fri Sep 21 14:11:03 2018
Module time:
	user time   =       4.87 seconds =       0.08 minutes
	system time =       0.07 seconds =       0.00 minutes
	total time  =          2 seconds =       0.03 minutes
Total time:
	user time   =    1417.94 seconds =      23.63 minutes
	system time =      12.38 seconds =       0.21 minutes
	total time  =        383 seconds =       6.38 minutes

-------------------------------------------------------------

  Computing second-derivative from gradients using projected, 
  symmetry-adapted, cartesian coordinates (fd_freq_1).

  37 gradients passed in, including the reference geometry.
  Generating complete list of displacements from unique ones.


-------------------------------------------------------------

    Psi4 stopped on: Friday, 21 September 2018 02:11PM
    Psi4 wall time for execution: 0:06:22.35

*** Psi4 exiting successfully. Buy a developer a beer!
