
    -----------------------------------------------------------------------
          Psi4: An Open-Source Ab Initio Electronic Structure Package
                               Psi4 1.2.1 release

                         Git: Rev {HEAD} 406f4de 


    R. M. Parrish, L. A. Burns, D. G. A. Smith, A. C. Simmonett,
    A. E. DePrince III, E. G. Hohenstein, U. Bozkaya, A. Yu. Sokolov,
    R. Di Remigio, R. M. Richard, J. F. Gonthier, A. M. James,
    H. R. McAlexander, A. Kumar, M. Saitow, X. Wang, B. P. Pritchard,
    P. Verma, H. F. Schaefer III, K. Patkowski, R. A. King, E. F. Valeev,
    F. A. Evangelista, J. M. Turney, T. D. Crawford, and C. D. Sherrill,
    J. Chem. Theory Comput. 13(7) pp 3185--3197 (2017).
    (doi: 10.1021/acs.jctc.7b00174)


                         Additional Contributions by
    P. Kraus, H. Kruse, M. H. Lechner, M. C. Schieber, and R. A. Shaw

    -----------------------------------------------------------------------


    Psi4 started on: Tuesday, 25 September 2018 10:07PM

    Process ID: 5138
    Host:       d-snes-l-dc-01
    PSIDATADIR: /home/b6056633/anaconda3/share/psi4
    Memory:     500.0 MiB
    Threads:    4
    
  ==> Input File <==

--------------------------------------------------------------------------
memory 2 GB

molecule propane {
 0 1 
  C     1.255000   0.113000  -0.232000
  C     0.024000  -0.198000   0.577000
  C    -1.257000   0.089000  -0.183000
  H     1.601000   1.154000  -0.124000
  H     2.068000  -0.565000   0.088000
  H     1.000000  -0.093000  -1.297000
  H     0.040000  -1.305000   0.761000
  H     0.019000   0.270000   1.574000
  H    -1.981000   0.564000   0.511000
  H    -1.684000  -0.829000  -0.650000
  H    -1.085000   0.800000  -1.026000
}

set basis 6-311++G(d,p)
optimize('wb97x-d')
e, wfn = frequencies('wb97x-d', dertype=1, return_wfn=True)
fd_freqs_grad = wfn.frequencies()
set hessian_write on
wfn.hessian().print_out()
--------------------------------------------------------------------------

  Memory set to   1.863 GiB by Python driver.
gradient() will perform analytic gradient computation.

*** tstart() called on d-snes-l-dc-01
*** at Tue Sep 25 22:07:51 2018

   => Loading Basis Set <=

    Name: 6-311++G(D,P)
    Role: ORBITAL
    Keyword: BASIS
    atoms 1-3  entry C          line   119 file /home/b6056633/anaconda3/share/psi4/basis/6-311ppg_d_p_.gbs 
    atoms 4-11 entry H          line    42 file /home/b6056633/anaconda3/share/psi4/basis/6-311ppg_d_p_.gbs 


         ---------------------------------------------------------
                                   SCF
            by Justin Turney, Rob Parrish, Andy Simmonett
                             and Daniel Smith
                              RKS Reference
                        4 Threads,   1907 MiB Core
         ---------------------------------------------------------

  ==> Geometry <==

    Molecular point group: c1
    Full point group: C1

    Geometry (in Angstrom), charge = 0, multiplicity = 1:

       Center              X                  Y                   Z               Mass       
    ------------   -----------------  -----------------  -----------------  -----------------
         C            1.249511720872     0.112002131068    -0.272390819185    12.000000000000
         C            0.018511720872    -0.198997868932     0.536609180815    12.000000000000
         C           -1.262488279128     0.088002131068    -0.223390819185    12.000000000000
         H            1.595511720872     1.153002131068    -0.164390819185     1.007825032070
         H            2.062511720872    -0.565997868932     0.047609180815     1.007825032070
         H            0.994511720872    -0.093997868932    -1.337390819185     1.007825032070
         H            0.034511720872    -1.305997868932     0.720609180815     1.007825032070
         H            0.013511720872     0.269002131068     1.533609180815     1.007825032070
         H           -1.986488279128     0.563002131068     0.470609180815     1.007825032070
         H           -1.689488279128    -0.829997868932    -0.690390819185     1.007825032070
         H           -1.090488279128     0.799002131068    -1.066390819185     1.007825032070

  Running in c1 symmetry.

  Rotational constants: A =      0.97173  B =      0.28737  C =      0.25447 [cm^-1]
  Rotational constants: A =  29131.69054  B =   8615.12396  C =   7628.68518 [MHz]
  Nuclear repulsion =   82.701711906781554

  Charge       = 0
  Multiplicity = 1
  Electrons    = 26
  Nalpha       = 13
  Nbeta        = 13

  ==> Algorithm <==

  SCF Algorithm Type is DF.
  DIIS enabled.
  MOM disabled.
  Fractional occupation disabled.
  Guess Type is SAD.
  Energy threshold   = 1.00e-08
  Density threshold  = 1.00e-08
  Integral threshold = 0.00e+00

  ==> Primary Basis <==

  Basis Set: 6-311++G(D,P)
    Blend: 6-311++G(D,P)
    Number of shells: 70
    Number of basis function: 122
    Number of Cartesian functions: 125
    Spherical Harmonics?: true
    Max angular momentum: 2

  ==> DFT Potential <==

   => Composite Functional: WB97X-D <= 

    wB97X-D Hyb-GGA Exchange-Correlation Functional

    J.-D. Chai and M. Head-Gordon, Phys. Chem. Chem. Phys. 10, 6615 (2008)

    Deriv               =              1
    GGA                 =           TRUE
    Meta                =          FALSE

    Exchange Hybrid     =           TRUE
    MP2 Hybrid          =          FALSE

   => Exchange-Correlation Functionals <=

    1.0000   wB97D range-separated functional

   => Exact (HF) Exchange <=

    0.7780            HF,LR [omega = 0.2000]
    0.2220               HF 

   => Molecular Quadrature <=

    Radial Scheme       =       TREUTLER
    Pruning Scheme      =           FLAT
    Nuclear Scheme      =       TREUTLER

    BS radius alpha     =              1
    Pruning alpha       =              1
    Radial Points       =             75
    Spherical Points    =            302
    Total Points        =         249150
    Total Blocks        =           1913
    Max Points          =            256
    Max Functions       =            122

   => -CHG: Empirical Dispersion <=

    Chai and Head-Gordon Dispersion Correction
    Chai, J.-D.; Head-Gordon, M. (2010), J. Chem. Phys., 132: 6615-6620

        S6 =   1.000000E+00

   => Loading Basis Set <=

    Name: (6-311++G(D,P) AUX)
    Role: JKFIT
    Keyword: DF_BASIS_SCF
    atoms 1-3  entry C          line   162 file /home/b6056633/anaconda3/share/psi4/basis/aug-cc-pvtz-jkfit.gbs 
    atoms 4-11 entry H          line    70 file /home/b6056633/anaconda3/share/psi4/basis/aug-cc-pvtz-jkfit.gbs 

  ==> Pre-Iterations <==

   -------------------------------------------------------
    Irrep   Nso     Nmo     Nalpha   Nbeta   Ndocc  Nsocc
   -------------------------------------------------------
     A        122     122       0       0       0       0
   -------------------------------------------------------
    Total     122     122      13      13      13       0
   -------------------------------------------------------

  ==> Integral Setup <==

  ==> DiskDFJK: Density-Fitted J/K Matrices <==

    J tasked:                  Yes
    K tasked:                  Yes
    wK tasked:                 Yes
    Omega:               2.000E-01
    OpenMP threads:              4
    Integrals threads:           4
    Memory (MB):              1430
    Algorithm:                Core
    Integral Cache:           NONE
    Schwarz Cutoff:          1E-12
    Fitting Condition:       1E-12

   => Auxiliary Basis Set <=

  Basis Set: (6-311++G(D,P) AUX)
    Blend: AUG-CC-PVTZ-JKFIT
    Number of shells: 202
    Number of basis function: 680
    Number of Cartesian functions: 833
    Spherical Harmonics?: true
    Max angular momentum: 4

  Minimum eigenvalue in the overlap matrix is 5.2157677001E-05.
  Using Symmetric Orthogonalization.

  SCF Guess: Superposition of Atomic Densities via on-the-fly atomic UHF.

  ==> Iterations <==

                           Total Energy        Delta E     RMS |[F,P]|

   @DF-RKS iter   0:  -119.77584584112776   -1.19776e+02   5.12504e-02 
   @DF-RKS iter   1:  -119.07138801390298    7.04458e-01   4.76212e-03 
   @DF-RKS iter   2:  -119.10446510934869   -3.30771e-02   3.32481e-03 DIIS
   @DF-RKS iter   3:  -119.12566036120096   -2.11953e-02   4.36772e-04 DIIS
   @DF-RKS iter   4:  -119.12616322935148   -5.02868e-04   9.06518e-05 DIIS
   @DF-RKS iter   5:  -119.12618798131886   -2.47520e-05   4.27069e-05 DIIS
   @DF-RKS iter   6:  -119.12619171480362   -3.73348e-06   6.73949e-06 DIIS
   @DF-RKS iter   7:  -119.12619190468979   -1.89886e-07   1.16258e-06 DIIS
   @DF-RKS iter   8:  -119.12619191135566   -6.66587e-09   3.79853e-07 DIIS
   @DF-RKS iter   9:  -119.12619191183130   -4.75637e-10   1.44951e-07 DIIS
   @DF-RKS iter  10:  -119.12619191189688   -6.55831e-11   2.96584e-08 DIIS
   @DF-RKS iter  11:  -119.12619191190052   -3.63798e-12   5.36538e-09 DIIS

  ==> Post-Iterations <==

    Orbital Energies [Eh]
    ---------------------

    Doubly Occupied:                                                      

       1A    -10.275804     2A    -10.271402     3A    -10.270081  
       4A     -0.884641     5A     -0.773719     6A     -0.671064  
       7A     -0.546886     8A     -0.525208     9A     -0.478322  
      10A     -0.469700    11A     -0.420985    12A     -0.411386  
      13A     -0.395295  

    Virtual:                                                              

      14A      0.044307    15A      0.060940    16A      0.062103  
      17A      0.065570    18A      0.090276    19A      0.096153  
      20A      0.098064    21A      0.105775    22A      0.134713  
      23A      0.151905    24A      0.158429    25A      0.173883  
      26A      0.178123    27A      0.179414    28A      0.191281  
      29A      0.192932    30A      0.197792    31A      0.202332  
      32A      0.218251    33A      0.223301    34A      0.232083  
      35A      0.249452    36A      0.270285    37A      0.274027  
      38A      0.326175    39A      0.328333    40A      0.341895  
      41A      0.370437    42A      0.385204    43A      0.416033  
      44A      0.509792    45A      0.522155    46A      0.527568  
      47A      0.538235    48A      0.562977    49A      0.576773  
      50A      0.615715    51A      0.717759    52A      0.722829  
      53A      0.736690    54A      0.740853    55A      0.744870  
      56A      0.750993    57A      0.761095    58A      0.782533  
      59A      0.802419    60A      0.818902    61A      0.910855  
      62A      0.975440    63A      1.006926    64A      1.019672  
      65A      1.138394    66A      1.316861    67A      1.365828  
      68A      1.385636    69A      1.510055    70A      1.537393  
      71A      1.546220    72A      1.581368    73A      1.607310  
      74A      1.630727    75A      1.660926    76A      1.687762  
      77A      1.707191    78A      1.718874    79A      1.764146  
      80A      1.801724    81A      1.837075    82A      1.850337  
      83A      1.898418    84A      1.976574    85A      2.020277  
      86A      2.088419    87A      2.151032    88A      2.170828  
      89A      2.191587    90A      2.214734    91A      2.315327  
      92A      2.363921    93A      2.450587    94A      2.470538  
      95A      2.532854    96A      2.548096    97A      2.553735  
      98A      2.602364    99A      2.610968   100A      2.626641  
     101A      2.649453   102A      2.718097   103A      2.743194  
     104A      2.757918   105A      2.781491   106A      2.810034  
     107A      2.878678   108A      2.898201   109A      2.964742  
     110A      3.096879   111A      3.200497   112A      3.388309  
     113A      3.683543   114A      3.794084   115A      3.888680  
     116A      3.933485   117A      4.096446   118A      4.284544  
     119A      4.425061   120A     24.015503   121A     24.041526  
     122A     24.079251  

    Final Occupation by Irrep:
              A 
    DOCC [    13 ]

  Energy converged.

  @DF-RKS Final Energy:  -119.12619191190052

   => Energetics <=

    Nuclear Repulsion Energy =             82.7017119067815543
    One-Electron Energy =                -322.1410223858799782
    Two-Electron Energy =                 133.2809397144653190
    DFT Exchange-Correlation Energy =     -12.9639133199653536
    Empirical Dispersion Energy =          -0.0039078273020528
    VV10 Nonlocal Energy =                  0.0000000000000000
    Total Energy =                       -119.1261919119005199



Properties will be evaluated at   0.000000,   0.000000,   0.000000 [a0]

Properties computed using the SCF density matrix

  Nuclear Dipole Moment: [e a0]
     X:    -0.0618      Y:    -0.0112      Z:    -0.4557

  Electronic Dipole Moment: [e a0]
     X:     0.0663      Y:    -0.0085      Z:     0.4939

  Dipole Moment: [e a0]
     X:     0.0045      Y:    -0.0197      Z:     0.0382     Total:     0.0432

  Dipole Moment: [D]
     X:     0.0114      Y:    -0.0501      Z:     0.0970     Total:     0.1098


*** tstop() called on d-snes-l-dc-01 at Tue Sep 25 22:07:59 2018
Module time:
	user time   =      26.52 seconds =       0.44 minutes
	system time =       0.74 seconds =       0.01 minutes
	total time  =          8 seconds =       0.13 minutes
Total time:
	user time   =      26.52 seconds =       0.44 minutes
	system time =       0.74 seconds =       0.01 minutes
	total time  =          8 seconds =       0.13 minutes

*** tstart() called on d-snes-l-dc-01
*** at Tue Sep 25 22:07:59 2018


         ------------------------------------------------------------
                                   SCF GRAD                          
                          Rob Parrish, Justin Turney,                
                       Andy Simmonett, and Alex Sokolov              
         ------------------------------------------------------------

  ==> Geometry <==

    Molecular point group: c1
    Full point group: C1

    Geometry (in Angstrom), charge = 0, multiplicity = 1:

       Center              X                  Y                   Z               Mass       
    ------------   -----------------  -----------------  -----------------  -----------------
         C            1.249511720872     0.112002131068    -0.272390819185    12.000000000000
         C            0.018511720872    -0.198997868932     0.536609180815    12.000000000000
         C           -1.262488279128     0.088002131068    -0.223390819185    12.000000000000
         H            1.595511720872     1.153002131068    -0.164390819185     1.007825032070
         H            2.062511720872    -0.565997868932     0.047609180815     1.007825032070
         H            0.994511720872    -0.093997868932    -1.337390819185     1.007825032070
         H            0.034511720872    -1.305997868932     0.720609180815     1.007825032070
         H            0.013511720872     0.269002131068     1.533609180815     1.007825032070
         H           -1.986488279128     0.563002131068     0.470609180815     1.007825032070
         H           -1.689488279128    -0.829997868932    -0.690390819185     1.007825032070
         H           -1.090488279128     0.799002131068    -1.066390819185     1.007825032070

  Nuclear repulsion =   82.701711906781554

  ==> Basis Set <==

  Basis Set: 6-311++G(D,P)
    Blend: 6-311++G(D,P)
    Number of shells: 70
    Number of basis function: 122
    Number of Cartesian functions: 125
    Spherical Harmonics?: true
    Max angular momentum: 2

  ==> DFJKGrad: Density-Fitted SCF Gradients <==

    Gradient:                    1
    J tasked:                  Yes
    K tasked:                  Yes
    wK tasked:                 Yes
    Omega:               2.000E-01
    OpenMP threads:              4
    Integrals threads:           4
    Memory (MB):              1430
    Schwarz Cutoff:          0E+00
    Fitting Condition:       1E-12

   => Auxiliary Basis Set <=

  Basis Set: (6-311++G(D,P) AUX)
    Blend: AUG-CC-PVTZ-JKFIT
    Number of shells: 202
    Number of basis function: 680
    Number of Cartesian functions: 833
    Spherical Harmonics?: true
    Max angular momentum: 4

  ==> DFT Potential <==

   => Composite Functional: WB97X-D <= 

    wB97X-D Hyb-GGA Exchange-Correlation Functional

    J.-D. Chai and M. Head-Gordon, Phys. Chem. Chem. Phys. 10, 6615 (2008)

    Deriv               =              1
    GGA                 =           TRUE
    Meta                =          FALSE

    Exchange Hybrid     =           TRUE
    MP2 Hybrid          =          FALSE

   => Exchange-Correlation Functionals <=

    1.0000   wB97D range-separated functional

   => Exact (HF) Exchange <=

    0.7780            HF,LR [omega = 0.2000]
    0.2220               HF 

   => Molecular Quadrature <=

    Radial Scheme       =       TREUTLER
    Pruning Scheme      =           FLAT
    Nuclear Scheme      =       TREUTLER

    BS radius alpha     =              1
    Pruning alpha       =              1
    Radial Points       =             75
    Spherical Points    =            302
    Total Points        =         249150
    Total Blocks        =           1913
    Max Points          =            256
    Max Functions       =            122


  -Total Gradient:
     Atom            X                  Y                   Z
    ------   -----------------  -----------------  -----------------
       1       -0.012671291033     0.004627003991     0.007605374274
       2        0.004158842026     0.029068306710    -0.009977779093
       3        0.016759227884    -0.012841892974     0.007552317614
       4        0.003349723742     0.005119803185     0.003351139402
       5        0.001073442986    -0.008635574478     0.006533945032
       6       -0.010912758915    -0.003228658014    -0.010166159213
       7        0.000226448223    -0.015580511579    -0.003083602276
       8       -0.002502539911    -0.000214558418     0.006373372442
       9        0.000633454768     0.008142547396     0.012099420063
      10       -0.002375682448    -0.011825502708    -0.008674091893
      11        0.002459426546     0.005360145543    -0.011588284915


*** tstop() called on d-snes-l-dc-01 at Tue Sep 25 22:08:01 2018
Module time:
	user time   =      11.31 seconds =       0.19 minutes
	system time =       0.21 seconds =       0.00 minutes
	total time  =          2 seconds =       0.03 minutes
Total time:
	user time   =      37.83 seconds =       0.63 minutes
	system time =       0.95 seconds =       0.02 minutes
	total time  =         10 seconds =       0.17 minutes

			-----------------------------------------
			 OPTKING 2.0: for geometry optimizations 
			  - R.A. King,  Bethel University        
			-----------------------------------------

	Internal coordinates to be generated automatically.
	Detected frag 1 with atoms:  1 2 3 4 5 6 7 8 9 10 11
	---Fragment 1 Bond Connectivity---
	 1 : 2 4 5 6
	 2 : 1 3 7 8
	 3 : 2 9 10 11
	 4 : 1
	 5 : 1
	 6 : 1
	 7 : 2
	 8 : 2
	 9 : 3
	 10 : 3
	 11 : 3

	---Fragment 1 Geometry and Gradient---
	 C           2.3612349523        0.2116533540       -0.5147440494
	 C           0.0349820827       -0.3760514733        1.0140443921
	 C          -2.3857570935        0.1662999268       -0.4221474689
	 H           3.0150801943        2.1788582584       -0.3106536270
	 H           3.8975822983       -1.0695809641        0.0899683132
	 H           1.8793547884       -0.1776302294       -2.5273023809
	 H           0.0652177008       -2.4679783024        1.3617540006
	 H           0.0255334520        0.5083403569        2.8981013466
	 H          -3.7539188137        1.0639198399        0.8893224674
	 H          -3.1926701523       -1.5684686632       -1.3046495729
	 H          -2.0607241987        1.5098952073       -2.0151865989
	            -0.0126712910        0.0046270040        0.0076053743
	             0.0041588420        0.0290683067       -0.0099777791
	             0.0167592279       -0.0128418930        0.0075523176
	             0.0033497237        0.0051198032        0.0033511394
	             0.0010734430       -0.0086355745        0.0065339450
	            -0.0109127589       -0.0032286580       -0.0101661592
	             0.0002264482       -0.0155805116       -0.0030836023
	            -0.0025025399       -0.0002145584        0.0063733724
	             0.0006334548        0.0081425474        0.0120994201
	            -0.0023756824       -0.0118255027       -0.0086740919
	             0.0024594265        0.0053601455       -0.0115882849

	Previous optimization step data not found.  Starting new optimization.

	---Fragment 1 Intrafragment Coordinates---
	 - Coordinate -           - BOHR/RAD -       - ANG/DEG -
	 R(1,2)           =         2.845003	       1.505511
	 R(1,4)           =         2.083041	       1.102298
	 R(1,5)           =         2.089881	       1.105917
	 R(1,6)           =         2.105740	       1.114310
	 R(2,3)           =         2.866491	       1.516882
	 R(2,7)           =         2.120843	       1.122302
	 R(2,8)           =         2.081324	       1.101389
	 R(3,9)           =         2.097032	       1.109701
	 R(3,10)          =         2.106974	       1.114963
	 R(3,11)          =         2.109187	       1.116134
	 B(1,2,3)         =         1.962968	     112.469773
	 B(1,2,7)         =         1.854799	     106.272163
	 B(1,2,8)         =         1.984893	     113.726002
	 B(2,1,4)         =         1.981325	     113.521546
	 B(2,1,5)         =         1.895432	     108.600260
	 B(2,1,6)         =         1.863223	     106.754794
	 B(2,3,9)         =         1.895070	     108.579509
	 B(2,3,10)        =         1.957884	     112.178468
	 B(2,3,11)        =         1.948521	     111.642028
	 B(3,2,7)         =         1.855431	     106.308357
	 B(3,2,8)         =         1.949064	     111.673117
	 B(4,1,5)         =         1.896391	     108.655179
	 B(4,1,6)         =         1.917777	     109.880522
	 B(5,1,6)         =         1.908628	     109.356306
	 B(7,2,8)         =         1.844999	     105.710654
	 B(9,3,10)        =         1.943903	     111.377463
	 B(9,3,11)        =         1.875720	     107.470821
	 B(10,3,11)       =         1.841236	     105.495075
	 D(1,2,3,9)       =        -2.422990	    -138.827120
	 D(1,2,3,10)      =         1.704270	      97.647500
	 D(1,2,3,11)      =        -0.358230	     -20.525059
	 D(3,2,1,4)       =         1.550676	      88.847192
	 D(3,2,1,5)       =        -2.621209	    -150.184226
	 D(3,2,1,6)       =        -0.565048	     -32.374892
	 D(4,1,2,7)       =        -2.709137	    -155.222144
	 D(4,1,2,8)       =        -0.686735	     -39.346989
	 D(5,1,2,7)       =        -0.597837	     -34.253562
	 D(5,1,2,8)       =         1.424566	      81.621593
	 D(6,1,2,7)       =         1.458323	      83.555772
	 D(6,1,2,8)       =        -2.802459	    -160.569073
	 D(7,2,3,9)       =         1.837203	     105.263979
	 D(7,2,3,10)      =        -0.318722	     -18.261401
	 D(7,2,3,11)      =        -2.381222	    -136.433960
	 D(8,2,3,9)       =        -0.166891	      -9.562129
	 D(8,2,3,10)      =        -2.322815	    -133.087509
	 D(8,2,3,11)      =         1.897870	     108.739932

	Current energy   :      -119.1261919119

	Generating empirical Hessian (Schlegel '84) for each fragment.
	Taking RFO optimization step.
	Going to follow RFO solution 1.
	Using RFO vector 1.
	Norm of target step-size    0.40058
	Projected energy change by RFO approximation:        -0.0260214168

	Back-transformation to cartesian coordinates...
	Successfully converged to displaced geometry.

	--- Internal Coordinate Step in ANG or DEG, aJ/ANG or AJ/DEG ---
	 ---------------------------------------------------------------------------
	   Coordinate                Previous        Force       Change         New 
	   ----------                --------       ------       ------       ------
	    1 R(1,2)          =      1.505511     0.165576     0.032212     1.537723
	    2 R(1,4)          =      1.102298    -0.051034    -0.009463     1.092835
	    3 R(1,5)          =      1.105917    -0.065652    -0.012313     1.093604
	    4 R(1,6)          =      1.114310    -0.105647    -0.020342     1.093967
	    5 R(2,3)          =      1.516882     0.135906     0.027383     1.544264
	    6 R(2,7)          =      1.122302    -0.122421    -0.024163     1.098138
	    7 R(2,8)          =      1.101389    -0.046894    -0.008670     1.092719
	    8 R(3,9)          =      1.109701    -0.087788    -0.016662     1.093039
	    9 R(3,10)         =      1.114963    -0.117614    -0.022693     1.092270
	   10 R(3,11)         =      1.116134    -0.103410    -0.020025     1.096109
	   11 B(1,2,3)        =    112.469773     0.000579     2.030516   114.500289
	   12 B(1,2,7)        =    106.272163    -0.000027     1.592742   107.864906
	   13 B(1,2,8)        =    113.726002    -0.000379    -3.172723   110.553279
	   14 B(2,1,4)        =    113.521546    -0.000268    -1.697819   111.823727
	   15 B(2,1,5)        =    108.600260     0.000746     3.410819   112.011079
	   16 B(2,1,6)        =    106.754794     0.000816     3.581787   110.336581
	   17 B(2,3,9)        =    108.579509     0.000912     3.858051   112.437560
	   18 B(2,3,10)       =    112.178468    -0.000042    -0.399565   111.778903
	   19 B(2,3,11)       =    111.642028    -0.000115    -0.141519   111.500509
	   20 B(3,2,7)        =    106.308357     0.000111     2.807063   109.115420
	   21 B(3,2,8)        =    111.673117    -0.000284    -2.387821   109.285296
	   22 B(4,1,5)        =    108.655179    -0.000294    -1.114636   107.540543
	   23 B(4,1,6)        =    109.880522    -0.000405    -1.999002   107.881520
	   24 B(5,1,6)        =    109.356306    -0.000594    -2.329109   107.027197
	   25 B(7,2,8)        =    105.710654     0.000013    -0.630511   105.080143
	   26 B(9,3,10)       =    111.377463    -0.000610    -3.312781   108.064682
	   27 B(9,3,11)       =    107.470821    -0.000325    -1.013231   106.457589
	   28 B(10,3,11)      =    105.495075     0.000121     0.755105   106.250180
	   29 D(1,2,3,9)      =   -138.827120     0.000011    -1.288518  -140.115639
	   30 D(1,2,3,10)     =     97.647500     0.000046     0.483624    98.131123
	   31 D(1,2,3,11)     =    -20.525059     0.000035    -0.112010   -20.637070
	   32 D(3,2,1,4)      =     88.847192    -0.000076    -7.837847    81.009345
	   33 D(3,2,1,5)      =   -150.184226    -0.000081    -8.005684  -158.189909
	   34 D(3,2,1,6)      =    -32.374892    -0.000051    -6.692797   -39.067689
	   35 D(4,1,2,7)      =   -155.222144     0.000020    -2.100509  -157.322653
	   36 D(4,1,2,8)      =    -39.346989    -0.000027    -3.595875   -42.942864
	   37 D(5,1,2,7)      =    -34.253562     0.000016    -2.268345   -36.521907
	   38 D(5,1,2,8)      =     81.621593    -0.000031    -3.763711    77.857882
	   39 D(6,1,2,7)      =     83.555772     0.000045    -0.955459    82.600313
	   40 D(6,1,2,8)      =   -160.569073    -0.000002    -2.450825  -163.019898
	   41 D(7,2,3,9)      =    105.263979    -0.000067    -6.360481    98.903499
	   42 D(7,2,3,10)     =    -18.261401    -0.000031    -4.588339   -22.849739
	   43 D(7,2,3,11)     =   -136.433960    -0.000042    -5.183973  -141.617932
	   44 D(8,2,3,9)      =     -9.562129    -0.000052    -5.927425   -15.489554
	   45 D(8,2,3,10)     =   -133.087509    -0.000016    -4.155283  -137.242792
	   46 D(8,2,3,11)     =    108.739932    -0.000027    -4.750917   103.989015
	 ---------------------------------------------------------------------------
	Successfully symmetrized geometry.

  ==> Convergence Check <==

  Measures of convergence in internal coordinates in au.
  Criteria marked as inactive (o), active & met (*), and active & unmet ( ).
  --------------------------------------------------------------------------------------------- ~
   Step     Total Energy     Delta E     MAX Force     RMS Force      MAX Disp      RMS Disp    ~
  --------------------------------------------------------------------------------------------- ~
    Convergence Criteria    1.00e-06 *    3.00e-04 *             o    1.20e-03 *             o  ~
  --------------------------------------------------------------------------------------------- ~
      1    -119.12619191   -1.19e+02      2.01e-02      7.28e-03 o    1.40e-01      5.90e-02 o  ~
  ---------------------------------------------------------------------------------------------

	Writing optimization data to binary file.
	Structure for next step:
	Cartesian Geometry (in Angstrom)
	    C     1.2872317336   0.1019847668  -0.2615896830
	    C     0.0068032055  -0.2244565055   0.5248769804
	    C    -1.3045583789   0.0754792950  -0.2334908767
	    H     1.5323165495   1.1659758562  -0.2152775706
	    H     2.1517910029  -0.4520632594   0.1146247042
	    H     1.1663016829  -0.1693401801  -1.3144539577
	    H     0.0349392250  -1.2905123792   0.7868708105
	    H    -0.0007994349   0.3033280701   1.4816526406
	    H    -2.0717077365   0.5073615875   0.4143473922
	    H    -1.7190326849  -0.8224534537  -0.6971523334
	    H    -1.1436562347   0.7937196440  -1.0457071174
			--------------------------
			 OPTKING Finished Execution 
			--------------------------

    Structure for next step:
    Molecular point group: c1
    Full point group: C1

    Geometry (in Angstrom), charge = 0, multiplicity = 1:

    C            1.291237828691     0.113958903850    -0.258837779594
    C            0.010809300583    -0.212482368478     0.527628883835
    C           -1.300552283747     0.087453432049    -0.230738973299
    H            1.536322644604     1.177949993188    -0.212525667183
    H            2.155797098068    -0.440089122340     0.117376607587
    H            1.170307778068    -0.157366043132    -1.311702054248
    H            0.038945320101    -1.278538242234     0.789622713929
    H            0.003206660241     0.315302207148     1.484404544007
    H           -2.067701641345     0.519335724503     0.417099295684
    H           -1.715026589807    -0.810479316728    -0.694400429961
    H           -1.139650139536     0.805693781041    -1.042955213990

gradient() will perform analytic gradient computation.

*** tstart() called on d-snes-l-dc-01
*** at Tue Sep 25 22:08:01 2018

   => Loading Basis Set <=

    Name: 6-311++G(D,P)
    Role: ORBITAL
    Keyword: BASIS
    atoms 1-3  entry C          line   119 file /home/b6056633/anaconda3/share/psi4/basis/6-311ppg_d_p_.gbs 
    atoms 4-11 entry H          line    42 file /home/b6056633/anaconda3/share/psi4/basis/6-311ppg_d_p_.gbs 


         ---------------------------------------------------------
                                   SCF
            by Justin Turney, Rob Parrish, Andy Simmonett
                             and Daniel Smith
                              RKS Reference
                        4 Threads,   1907 MiB Core
         ---------------------------------------------------------

  ==> Geometry <==

    Molecular point group: c1
    Full point group: C1

    Geometry (in Angstrom), charge = 0, multiplicity = 1:

       Center              X                  Y                   Z               Mass       
    ------------   -----------------  -----------------  -----------------  -----------------
         C            1.291237828691     0.113958903850    -0.258837779594    12.000000000000
         C            0.010809300583    -0.212482368478     0.527628883835    12.000000000000
         C           -1.300552283747     0.087453432049    -0.230738973299    12.000000000000
         H            1.536322644604     1.177949993188    -0.212525667183     1.007825032070
         H            2.155797098068    -0.440089122340     0.117376607587     1.007825032070
         H            1.170307778068    -0.157366043132    -1.311702054248     1.007825032070
         H            0.038945320101    -1.278538242234     0.789622713929     1.007825032070
         H            0.003206660241     0.315302207148     1.484404544007     1.007825032070
         H           -2.067701641345     0.519335724503     0.417099295684     1.007825032070
         H           -1.715026589807    -0.810479316728    -0.694400429961     1.007825032070
         H           -1.139650139536     0.805693781041    -1.042955213990     1.007825032070

  Running in c1 symmetry.

  Rotational constants: A =      0.99629  B =      0.27186  C =      0.24224 [cm^-1]
  Rotational constants: A =  29867.98458  B =   8150.15892  C =   7262.10163 [MHz]
  Nuclear repulsion =   81.948840280860281

  Charge       = 0
  Multiplicity = 1
  Electrons    = 26
  Nalpha       = 13
  Nbeta        = 13

  ==> Algorithm <==

  SCF Algorithm Type is DF.
  DIIS enabled.
  MOM disabled.
  Fractional occupation disabled.
  Guess Type is READ.
  Energy threshold   = 1.00e-08
  Density threshold  = 1.00e-08
  Integral threshold = 0.00e+00

  ==> Primary Basis <==

  Basis Set: 6-311++G(D,P)
    Blend: 6-311++G(D,P)
    Number of shells: 70
    Number of basis function: 122
    Number of Cartesian functions: 125
    Spherical Harmonics?: true
    Max angular momentum: 2

  ==> DFT Potential <==

   => Composite Functional: WB97X-D <= 

    wB97X-D Hyb-GGA Exchange-Correlation Functional

    J.-D. Chai and M. Head-Gordon, Phys. Chem. Chem. Phys. 10, 6615 (2008)

    Deriv               =              1
    GGA                 =           TRUE
    Meta                =          FALSE

    Exchange Hybrid     =           TRUE
    MP2 Hybrid          =          FALSE

   => Exchange-Correlation Functionals <=

    1.0000   wB97D range-separated functional

   => Exact (HF) Exchange <=

    0.7780            HF,LR [omega = 0.2000]
    0.2220               HF 

   => Molecular Quadrature <=

    Radial Scheme       =       TREUTLER
    Pruning Scheme      =           FLAT
    Nuclear Scheme      =       TREUTLER

    BS radius alpha     =              1
    Pruning alpha       =              1
    Radial Points       =             75
    Spherical Points    =            302
    Total Points        =         249150
    Total Blocks        =           1913
    Max Points          =            256
    Max Functions       =            122

   => -CHG: Empirical Dispersion <=

    Chai and Head-Gordon Dispersion Correction
    Chai, J.-D.; Head-Gordon, M. (2010), J. Chem. Phys., 132: 6615-6620

        S6 =   1.000000E+00

   => Loading Basis Set <=

    Name: (6-311++G(D,P) AUX)
    Role: JKFIT
    Keyword: DF_BASIS_SCF
    atoms 1-3  entry C          line   162 file /home/b6056633/anaconda3/share/psi4/basis/aug-cc-pvtz-jkfit.gbs 
    atoms 4-11 entry H          line    70 file /home/b6056633/anaconda3/share/psi4/basis/aug-cc-pvtz-jkfit.gbs 

  Reading orbitals from file 180, no projection.

  ==> Pre-Iterations <==

   -------------------------------------------------------
    Irrep   Nso     Nmo     Nalpha   Nbeta   Ndocc  Nsocc
   -------------------------------------------------------
     A        122     122       0       0       0       0
   -------------------------------------------------------
    Total     122     122      13      13      13       0
   -------------------------------------------------------

  ==> Integral Setup <==

  ==> DiskDFJK: Density-Fitted J/K Matrices <==

    J tasked:                  Yes
    K tasked:                  Yes
    wK tasked:                 Yes
    Omega:               2.000E-01
    OpenMP threads:              4
    Integrals threads:           4
    Memory (MB):              1430
    Algorithm:                Core
    Integral Cache:           NONE
    Schwarz Cutoff:          1E-12
    Fitting Condition:       1E-12

   => Auxiliary Basis Set <=

  Basis Set: (6-311++G(D,P) AUX)
    Blend: AUG-CC-PVTZ-JKFIT
    Number of shells: 202
    Number of basis function: 680
    Number of Cartesian functions: 833
    Spherical Harmonics?: true
    Max angular momentum: 4

  Minimum eigenvalue in the overlap matrix is 6.1986396215E-05.
  Using Symmetric Orthogonalization.

  SCF Guess: Orbitals guess was supplied from a previous computation.

  ==> Iterations <==

                           Total Energy        Delta E     RMS |[F,P]|

   @DF-RKS iter   0:  -119.15749381015793   -1.19157e+02   2.08836e-03 
   @DF-RKS iter   1:  -119.13191373317242    2.55801e-02   3.64193e-04 
   @DF-RKS iter   2:  -119.13230128027305   -3.87547e-04   1.82705e-04 DIIS
   @DF-RKS iter   3:  -119.13236594151408   -6.46612e-05   5.86938e-05 DIIS
   @DF-RKS iter   4:  -119.13237511524129   -9.17373e-06   1.34741e-05 DIIS
   @DF-RKS iter   5:  -119.13237574560684   -6.30366e-07   2.73083e-06 DIIS
   @DF-RKS iter   6:  -119.13237576714300   -2.15362e-08   8.12286e-07 DIIS
   @DF-RKS iter   7:  -119.13237576882258   -1.67958e-09   2.55847e-07 DIIS
   @DF-RKS iter   8:  -119.13237576898212   -1.59531e-10   4.10151e-08 DIIS
   @DF-RKS iter   9:  -119.13237576898914   -7.02016e-12   8.06429e-09 DIIS

  ==> Post-Iterations <==

    Orbital Energies [Eh]
    ---------------------

    Doubly Occupied:                                                      

       1A    -10.277309     2A    -10.267830     3A    -10.267529  
       4A     -0.875898     5A     -0.777618     6A     -0.679528  
       7A     -0.541174     8A     -0.522032     9A     -0.478358  
      10A     -0.469512    11A     -0.419708    12A     -0.416859  
      13A     -0.403161  

    Virtual:                                                              

      14A      0.044277    15A      0.060494    16A      0.062215  
      17A      0.066629    18A      0.089605    19A      0.097289  
      20A      0.098384    21A      0.104304    22A      0.136740  
      23A      0.153916    24A      0.160973    25A      0.176121  
      26A      0.178132    27A      0.179647    28A      0.191012  
      29A      0.192947    30A      0.195916    31A      0.205343  
      32A      0.221889    33A      0.226528    34A      0.234522  
      35A      0.254585    36A      0.270633    37A      0.272516  
      38A      0.326651    39A      0.332788    40A      0.342294  
      41A      0.376210    42A      0.386914    43A      0.399513  
      44A      0.514848    45A      0.517278    46A      0.526372  
      47A      0.529299    48A      0.569416    49A      0.592589  
      50A      0.621687    51A      0.714999    52A      0.722797  
      53A      0.740843    54A      0.742793    55A      0.748399  
      56A      0.751008    57A      0.755512    58A      0.788885  
      59A      0.818660    60A      0.837444    61A      0.925598  
      62A      0.980824    63A      1.002199    64A      1.038315  
      65A      1.127355    66A      1.282212    67A      1.346302  
      68A      1.366663    69A      1.489323    70A      1.561475  
      71A      1.563592    72A      1.592086    73A      1.614261  
      74A      1.629472    75A      1.670689    76A      1.700672  
      77A      1.706772    78A      1.729381    79A      1.769975  
      80A      1.813389    81A      1.821940    82A      1.861902  
      83A      1.877163    84A      1.954675    85A      2.031272  
      86A      2.085675    87A      2.164936    88A      2.197082  
      89A      2.220459    90A      2.227481    91A      2.324832  
      92A      2.386564    93A      2.462210    94A      2.490148  
      95A      2.548314    96A      2.554103    97A      2.581287  
      98A      2.613465    99A      2.625748   100A      2.640586  
     101A      2.658378   102A      2.695029   103A      2.742444  
     104A      2.770331   105A      2.781745   106A      2.823823  
     107A      2.846607   108A      2.880124   109A      2.936333  
     110A      3.070073   111A      3.164729   112A      3.371062  
     113A      3.727950   114A      3.850868   115A      3.913715  
     116A      3.925818   117A      4.086883   118A      4.264864  
     119A      4.424729   120A     23.997156   121A     24.097139  
     122A     24.110267  

    Final Occupation by Irrep:
              A 
    DOCC [    13 ]

  Energy converged.

  @DF-RKS Final Energy:  -119.13237576898914

   => Energetics <=

    Nuclear Repulsion Energy =             81.9488402808602814
    One-Electron Energy =                -320.6339082967830336
    Two-Electron Energy =                 132.5343392369399567
    DFT Exchange-Correlation Energy =     -12.9777947293873996
    Empirical Dispersion Energy =          -0.0038522606189330
    VV10 Nonlocal Energy =                  0.0000000000000000
    Total Energy =                       -119.1323757689891210



Properties will be evaluated at   0.000000,   0.000000,   0.000000 [a0]

Properties computed using the SCF density matrix

  Nuclear Dipole Moment: [e a0]
     X:    -0.0167      Y:     0.1236      Z:    -0.4247

  Electronic Dipole Moment: [e a0]
     X:     0.0162      Y:    -0.1373      Z:     0.4490

  Dipole Moment: [e a0]
     X:    -0.0005      Y:    -0.0137      Z:     0.0243     Total:     0.0279

  Dipole Moment: [D]
     X:    -0.0012      Y:    -0.0349      Z:     0.0617     Total:     0.0709


*** tstop() called on d-snes-l-dc-01 at Tue Sep 25 22:08:08 2018
Module time:
	user time   =      23.02 seconds =       0.38 minutes
	system time =       0.22 seconds =       0.00 minutes
	total time  =          7 seconds =       0.12 minutes
Total time:
	user time   =      61.01 seconds =       1.02 minutes
	system time =       1.17 seconds =       0.02 minutes
	total time  =         17 seconds =       0.28 minutes

*** tstart() called on d-snes-l-dc-01
*** at Tue Sep 25 22:08:08 2018


         ------------------------------------------------------------
                                   SCF GRAD                          
                          Rob Parrish, Justin Turney,                
                       Andy Simmonett, and Alex Sokolov              
         ------------------------------------------------------------

  ==> Geometry <==

    Molecular point group: c1
    Full point group: C1

    Geometry (in Angstrom), charge = 0, multiplicity = 1:

       Center              X                  Y                   Z               Mass       
    ------------   -----------------  -----------------  -----------------  -----------------
         C            1.291237828691     0.113958903850    -0.258837779594    12.000000000000
         C            0.010809300583    -0.212482368478     0.527628883835    12.000000000000
         C           -1.300552283747     0.087453432049    -0.230738973299    12.000000000000
         H            1.536322644604     1.177949993188    -0.212525667183     1.007825032070
         H            2.155797098068    -0.440089122340     0.117376607587     1.007825032070
         H            1.170307778068    -0.157366043132    -1.311702054248     1.007825032070
         H            0.038945320101    -1.278538242234     0.789622713929     1.007825032070
         H            0.003206660241     0.315302207148     1.484404544007     1.007825032070
         H           -2.067701641345     0.519335724503     0.417099295684     1.007825032070
         H           -1.715026589807    -0.810479316728    -0.694400429961     1.007825032070
         H           -1.139650139536     0.805693781041    -1.042955213990     1.007825032070

  Nuclear repulsion =   81.948840280860281

  ==> Basis Set <==

  Basis Set: 6-311++G(D,P)
    Blend: 6-311++G(D,P)
    Number of shells: 70
    Number of basis function: 122
    Number of Cartesian functions: 125
    Spherical Harmonics?: true
    Max angular momentum: 2

  ==> DFJKGrad: Density-Fitted SCF Gradients <==

    Gradient:                    1
    J tasked:                  Yes
    K tasked:                  Yes
    wK tasked:                 Yes
    Omega:               2.000E-01
    OpenMP threads:              4
    Integrals threads:           4
    Memory (MB):              1430
    Schwarz Cutoff:          0E+00
    Fitting Condition:       1E-12

   => Auxiliary Basis Set <=

  Basis Set: (6-311++G(D,P) AUX)
    Blend: AUG-CC-PVTZ-JKFIT
    Number of shells: 202
    Number of basis function: 680
    Number of Cartesian functions: 833
    Spherical Harmonics?: true
    Max angular momentum: 4

  ==> DFT Potential <==

   => Composite Functional: WB97X-D <= 

    wB97X-D Hyb-GGA Exchange-Correlation Functional

    J.-D. Chai and M. Head-Gordon, Phys. Chem. Chem. Phys. 10, 6615 (2008)

    Deriv               =              1
    GGA                 =           TRUE
    Meta                =          FALSE

    Exchange Hybrid     =           TRUE
    MP2 Hybrid          =          FALSE

   => Exchange-Correlation Functionals <=

    1.0000   wB97D range-separated functional

   => Exact (HF) Exchange <=

    0.7780            HF,LR [omega = 0.2000]
    0.2220               HF 

   => Molecular Quadrature <=

    Radial Scheme       =       TREUTLER
    Pruning Scheme      =           FLAT
    Nuclear Scheme      =       TREUTLER

    BS radius alpha     =              1
    Pruning alpha       =              1
    Radial Points       =             75
    Spherical Points    =            302
    Total Points        =         249150
    Total Blocks        =           1913
    Max Points          =            256
    Max Functions       =            122


  -Total Gradient:
     Atom            X                  Y                   Z
    ------   -----------------  -----------------  -----------------
       1        0.003617367471     0.000750260886    -0.000346789999
       2        0.000648037262     0.005479874212     0.000373374010
       3       -0.003727332453    -0.003356523525     0.002548740398
       4        0.001303824812    -0.000852599099     0.001155327744
       5        0.000740122787    -0.000809518997    -0.001776721499
       6       -0.000390629361     0.000168576872     0.000423793106
       7        0.001888085547    -0.002043742441     0.000308845464
       8       -0.002686869868    -0.001844355826     0.000202586906
       9       -0.000195811382     0.002354104397    -0.000956826966
      10       -0.000084246692     0.000658325769    -0.000296754935
      11       -0.001118699102    -0.000713733821    -0.001654237829


*** tstop() called on d-snes-l-dc-01 at Tue Sep 25 22:08:11 2018
Module time:
	user time   =      11.39 seconds =       0.19 minutes
	system time =       0.26 seconds =       0.00 minutes
	total time  =          3 seconds =       0.05 minutes
Total time:
	user time   =      72.41 seconds =       1.21 minutes
	system time =       1.43 seconds =       0.02 minutes
	total time  =         20 seconds =       0.33 minutes

			-----------------------------------------
			 OPTKING 2.0: for geometry optimizations 
			  - R.A. King,  Bethel University        
			-----------------------------------------

	Previous internal coordinate definitions found.
	---Fragment 1 Geometry and Gradient---
	 C           2.4400858686        0.2153511187       -0.4891325163
	 C           0.0204266178       -0.4015334845        0.9970740902
	 C          -2.4576876378        0.1652630360       -0.4360334677
	 H           2.9032290501        2.2260028854       -0.4016153072
	 H           4.0738661134       -0.8316479153        0.2218096427
	 H           2.2115611917       -0.2973787241       -2.4787576505
	 H           0.0735959891       -2.4160871282        1.4921706776
	 H           0.0060597097        0.5958348206        2.8051180586
	 H          -3.9073898267        0.9814022903        0.7882034391
	 H          -3.2409305654       -1.5315839450       -1.3122266392
	 H          -2.1536266510        1.5225405931       -1.9708997233
	             0.0036173675        0.0007502609       -0.0003467900
	             0.0006480373        0.0054798742        0.0003733740
	            -0.0037273325       -0.0033565235        0.0025487404
	             0.0013038248       -0.0008525991        0.0011553277
	             0.0007401228       -0.0008095190       -0.0017767215
	            -0.0003906294        0.0001685769        0.0004237931
	             0.0018880855       -0.0020437424        0.0003088455
	            -0.0026868699       -0.0018443558        0.0002025869
	            -0.0001958114        0.0023541044       -0.0009568270
	            -0.0000842467        0.0006583258       -0.0002967549
	            -0.0011186991       -0.0007137338       -0.0016542378

	---Fragment 1 Intrafragment Coordinates---
	 - Coordinate -           - BOHR/RAD -       - ANG/DEG -
	 R(1,2)           =         2.905875	       1.537723
	 R(1,4)           =         2.065159	       1.092835
	 R(1,5)           =         2.066612	       1.093604
	 R(1,6)           =         2.067299	       1.093967
	 R(2,3)           =         2.918237	       1.544264
	 R(2,7)           =         2.075180	       1.098138
	 R(2,8)           =         2.064939	       1.092719
	 R(3,9)           =         2.065545	       1.093039
	 R(3,10)          =         2.064091	       1.092270
	 R(3,11)          =         2.071345	       1.096109
	 B(1,2,3)         =         1.998407	     114.500289
	 B(1,2,7)         =         1.882598	     107.864906
	 B(1,2,8)         =         1.929519	     110.553279
	 B(2,1,4)         =         1.951692	     111.823727
	 B(2,1,5)         =         1.954962	     112.011079
	 B(2,1,6)         =         1.925737	     110.336581
	 B(2,3,9)         =         1.962406	     112.437560
	 B(2,3,10)        =         1.950910	     111.778903
	 B(2,3,11)        =         1.946051	     111.500509
	 B(3,2,7)         =         1.904423	     109.115420
	 B(3,2,8)         =         1.907388	     109.285296
	 B(4,1,5)         =         1.876937	     107.540543
	 B(4,1,6)         =         1.882888	     107.881520
	 B(5,1,6)         =         1.867977	     107.027197
	 B(7,2,8)         =         1.833994	     105.080143
	 B(9,3,10)        =         1.886084	     108.064682
	 B(9,3,11)        =         1.858035	     106.457589
	 B(10,3,11)       =         1.854415	     106.250180
	 D(1,2,3,9)       =        -2.445479	    -140.115639
	 D(1,2,3,10)      =         1.712711	      98.131123
	 D(1,2,3,11)      =        -0.360185	     -20.637070
	 D(3,2,1,4)       =         1.413880	      81.009345
	 D(3,2,1,5)       =        -2.760935	    -158.189909
	 D(3,2,1,6)       =        -0.681860	     -39.067689
	 D(4,1,2,7)       =        -2.745798	    -157.322653
	 D(4,1,2,8)       =        -0.749494	     -42.942864
	 D(5,1,2,7)       =        -0.637428	     -36.521907
	 D(5,1,2,8)       =         1.358876	      77.857882
	 D(6,1,2,7)       =         1.441647	      82.600313
	 D(6,1,2,8)       =        -2.845234	    -163.019898
	 D(7,2,3,9)       =         1.726192	      98.903499
	 D(7,2,3,10)      =        -0.398803	     -22.849739
	 D(7,2,3,11)      =        -2.471699	    -141.617932
	 D(8,2,3,9)       =        -0.270344	     -15.489554
	 D(8,2,3,10)      =        -2.395339	    -137.242792
	 D(8,2,3,11)      =         1.814951	     103.989015

	Current energy   :      -119.1323757690

	Energy change for the previous step:
		Projected    :        -0.0260214168
		Actual       :        -0.0061838571
	Energy ratio indicates iffy step: Trust radius decreased to 1.250e-01.


	Performing BFGS update.
	Previous computed or guess Hessian on step 1.
	Steps to be used in Hessian update: 1
	Taking RFO optimization step.
	Going to follow RFO solution 1.
	Using RFO vector 1.

	Determining step-restricting scale parameter for RS-RFO.
	Maximum step size allowed    0.12500

	 Iter      |step|        alpha        rfo_root  
	------------------------------------------------
	    0     0.56091       1.00000           1
	    1     0.35345       3.49553           1
	    2     0.23270       8.87218           1
	    3     0.16719      17.55669           1
	    4     0.13619      26.53390           1
	    5     0.12621      30.90892           1
	    6     0.12502      31.50322           1
	    7     0.12500      31.51188           1
	------------------------------------------------
	Norm of target step-size    0.12500
	Projected energy change by RFO approximation:        -0.0009172932

	Back-transformation to cartesian coordinates...
	Successfully converged to displaced geometry.

	--- Internal Coordinate Step in ANG or DEG, aJ/ANG or AJ/DEG ---
	 ---------------------------------------------------------------------------
	   Coordinate                Previous        Force       Change         New 
	   ----------                --------       ------       ------       ------
	    1 R(1,2)          =      1.537723    -0.037121    -0.005740     1.531983
	    2 R(1,4)          =      1.092835     0.003965     0.000403     1.093238
	    3 R(1,5)          =      1.093604    -0.003180    -0.000916     1.092688
	    4 R(1,6)          =      1.093967     0.003438     0.000014     1.093982
	    5 R(2,3)          =      1.544264    -0.035849    -0.005874     1.538390
	    6 R(2,7)          =      1.098138    -0.017198    -0.003852     1.094286
	    7 R(2,8)          =      1.092719     0.005631     0.000710     1.093429
	    8 R(3,9)          =      1.093039    -0.004181    -0.001226     1.091813
	    9 R(3,10)         =      1.092270     0.003354    -0.000069     1.092202
	   10 R(3,11)         =      1.096109    -0.005100    -0.001504     1.094604
	   11 B(1,2,3)        =    114.500289    -0.000333    -1.099388   113.400901
	   12 B(1,2,7)        =    107.864906     0.000187     0.966851   108.831757
	   13 B(1,2,8)        =    110.553279    -0.000042    -0.802197   109.751082
	   14 B(2,1,4)        =    111.823727    -0.000056    -0.330943   111.492784
	   15 B(2,1,5)        =    112.011079    -0.000126    -0.389852   111.621227
	   16 B(2,1,6)        =    110.336581     0.000076     0.420078   110.756659
	   17 B(2,3,9)        =    112.437560    -0.000087    -0.336991   112.100568
	   18 B(2,3,10)       =    111.778903    -0.000023    -0.119972   111.658931
	   19 B(2,3,11)       =    111.500509    -0.000110    -0.316303   111.184206
	   20 B(3,2,7)        =    109.115420     0.000060     0.422021   109.537441
	   21 B(3,2,8)        =    109.285296     0.000176     0.260848   109.546143
	   22 B(4,1,5)        =    107.540543     0.000082     0.232230   107.772773
	   23 B(4,1,6)        =    107.881520    -0.000031    -0.232596   107.648924
	   24 B(5,1,6)        =    107.027197     0.000062     0.325117   107.352314
	   25 B(7,2,8)        =    105.080143    -0.000021     0.386404   105.466547
	   26 B(9,3,10)       =    108.064682     0.000006    -0.288840   107.775841
	   27 B(9,3,11)       =    106.457589     0.000120     0.498378   106.955967
	   28 B(10,3,11)      =    106.250180     0.000114     0.637511   106.887691
	   29 D(1,2,3,9)      =   -140.115639    -0.000002    -0.921492  -141.037131
	   30 D(1,2,3,10)     =     98.131123     0.000014    -0.218721    97.912402
	   31 D(1,2,3,11)     =    -20.637070     0.000002    -0.733513   -21.370583
	   32 D(3,2,1,4)      =     81.009345    -0.000017    -2.025713    78.983632
	   33 D(3,2,1,5)      =   -158.189909    -0.000022    -2.232229  -160.422138
	   34 D(3,2,1,6)      =    -39.067689    -0.000011    -1.796305   -40.863994
	   35 D(4,1,2,7)      =   -157.322653    -0.000018    -1.512811  -158.835464
	   36 D(4,1,2,8)      =    -42.942864    -0.000005    -0.942704   -43.885568
	   37 D(5,1,2,7)      =    -36.521907    -0.000024    -1.719327   -38.241234
	   38 D(5,1,2,8)      =     77.857882    -0.000010    -1.149219    76.708662
	   39 D(6,1,2,7)      =     82.600313    -0.000013    -1.283403    81.316910
	   40 D(6,1,2,8)      =   -163.019898     0.000000    -0.713295  -163.733194
	   41 D(7,2,3,9)      =     98.903499    -0.000016    -1.728356    97.175142
	   42 D(7,2,3,10)     =    -22.849739     0.000000    -1.025586   -23.875325
	   43 D(7,2,3,11)     =   -141.617932    -0.000012    -1.540378  -143.158310
	   44 D(8,2,3,9)      =    -15.489554    -0.000039    -2.565382   -18.054936
	   45 D(8,2,3,10)     =   -137.242792    -0.000023    -1.862612  -139.105404
	   46 D(8,2,3,11)     =    103.989015    -0.000036    -2.377404   101.611611
	 ---------------------------------------------------------------------------
	Successfully symmetrized geometry.

  ==> Convergence Check <==

  Measures of convergence in internal coordinates in au.
  Criteria marked as inactive (o), active & met (*), and active & unmet ( ).
  ---------------------------------------------------------------------------------------------
   Step     Total Energy     Delta E     MAX Force     RMS Force      MAX Disp      RMS Disp   
  ---------------------------------------------------------------------------------------------
    Convergence Criteria    1.00e-06 *    3.00e-04 *             o    1.20e-03 *             o
  ---------------------------------------------------------------------------------------------
      2    -119.13237577   -6.18e-03      4.51e-03      1.56e-03 o    4.48e-02      1.84e-02 o  ~
  ---------------------------------------------------------------------------------------------

	Writing optimization data to binary file.
	Structure for next step:
	Cartesian Geometry (in Angstrom)
	    C     1.2802096249   0.1039856399  -0.2496952780
	    C     0.0032764873  -0.2196495343   0.5324005659
	    C    -1.2860232117   0.0936402289  -0.2461878431
	    H     1.5034675665   1.1739443147  -0.2270209009
	    H     2.1456682290  -0.4259775130   0.1553812681
	    H     1.1780972006  -0.1913840737  -1.2980872597
	    H     0.0164346876  -1.2786973719   0.8075478299
	    H     0.0010788298   0.3275614243   1.4790486504
	    H    -2.0614316326   0.5158574880   0.3960970775
	    H    -1.6968606967  -0.7996229189  -0.7217905993
	    H    -1.1002211087   0.8210812650  -1.0427215840
			--------------------------
			 OPTKING Finished Execution 
			--------------------------

    Structure for next step:
    Molecular point group: c1
    Full point group: C1

    Geometry (in Angstrom), charge = 0, multiplicity = 1:

    C            1.281215463063     0.106718212425    -0.249312424104
    C            0.004282325468    -0.216916961814     0.532783419794
    C           -1.285017373532     0.096372801387    -0.245804989189
    H            1.504473404642     1.176676887153    -0.226638046967
    H            2.146674067157    -0.423244940517     0.155764122060
    H            1.179103038750    -0.188651501235    -1.297704405777
    H            0.017440525800    -1.275964799424     0.807930683845
    H            0.002084667956     0.330293996784     1.479431504315
    H           -2.060425794426     0.518590060464     0.396479931375
    H           -1.695854858487    -0.796890346436    -0.721407745380
    H           -1.099215270471     0.823813837458    -1.042338730072

gradient() will perform analytic gradient computation.

*** tstart() called on d-snes-l-dc-01
*** at Tue Sep 25 22:08:11 2018

   => Loading Basis Set <=

    Name: 6-311++G(D,P)
    Role: ORBITAL
    Keyword: BASIS
    atoms 1-3  entry C          line   119 file /home/b6056633/anaconda3/share/psi4/basis/6-311ppg_d_p_.gbs 
    atoms 4-11 entry H          line    42 file /home/b6056633/anaconda3/share/psi4/basis/6-311ppg_d_p_.gbs 


         ---------------------------------------------------------
                                   SCF
            by Justin Turney, Rob Parrish, Andy Simmonett
                             and Daniel Smith
                              RKS Reference
                        4 Threads,   1907 MiB Core
         ---------------------------------------------------------

  ==> Geometry <==

    Molecular point group: c1
    Full point group: C1

    Geometry (in Angstrom), charge = 0, multiplicity = 1:

       Center              X                  Y                   Z               Mass       
    ------------   -----------------  -----------------  -----------------  -----------------
         C            1.281215463063     0.106718212425    -0.249312424104    12.000000000000
         C            0.004282325468    -0.216916961814     0.532783419794    12.000000000000
         C           -1.285017373532     0.096372801387    -0.245804989189    12.000000000000
         H            1.504473404642     1.176676887153    -0.226638046967     1.007825032070
         H            2.146674067157    -0.423244940517     0.155764122060     1.007825032070
         H            1.179103038750    -0.188651501235    -1.297704405777     1.007825032070
         H            0.017440525800    -1.275964799424     0.807930683845     1.007825032070
         H            0.002084667956     0.330293996784     1.479431504315     1.007825032070
         H           -2.060425794426     0.518590060464     0.396479931375     1.007825032070
         H           -1.695854858487    -0.796890346436    -0.721407745380     1.007825032070
         H           -1.099215270471     0.823813837458    -1.042338730072     1.007825032070

  Running in c1 symmetry.

  Rotational constants: A =      0.98801  B =      0.27680  C =      0.24563 [cm^-1]
  Rotational constants: A =  29619.74523  B =   8298.23943  C =   7363.65741 [MHz]
  Nuclear repulsion =   82.250238831951265

  Charge       = 0
  Multiplicity = 1
  Electrons    = 26
  Nalpha       = 13
  Nbeta        = 13

  ==> Algorithm <==

  SCF Algorithm Type is DF.
  DIIS enabled.
  MOM disabled.
  Fractional occupation disabled.
  Guess Type is READ.
  Energy threshold   = 1.00e-08
  Density threshold  = 1.00e-08
  Integral threshold = 0.00e+00

  ==> Primary Basis <==

  Basis Set: 6-311++G(D,P)
    Blend: 6-311++G(D,P)
    Number of shells: 70
    Number of basis function: 122
    Number of Cartesian functions: 125
    Spherical Harmonics?: true
    Max angular momentum: 2

  ==> DFT Potential <==

   => Composite Functional: WB97X-D <= 

    wB97X-D Hyb-GGA Exchange-Correlation Functional

    J.-D. Chai and M. Head-Gordon, Phys. Chem. Chem. Phys. 10, 6615 (2008)

    Deriv               =              1
    GGA                 =           TRUE
    Meta                =          FALSE

    Exchange Hybrid     =           TRUE
    MP2 Hybrid          =          FALSE

   => Exchange-Correlation Functionals <=

    1.0000   wB97D range-separated functional

   => Exact (HF) Exchange <=

    0.7780            HF,LR [omega = 0.2000]
    0.2220               HF 

   => Molecular Quadrature <=

    Radial Scheme       =       TREUTLER
    Pruning Scheme      =           FLAT
    Nuclear Scheme      =       TREUTLER

    BS radius alpha     =              1
    Pruning alpha       =              1
    Radial Points       =             75
    Spherical Points    =            302
    Total Points        =         249150
    Total Blocks        =           1906
    Max Points          =            256
    Max Functions       =            122

   => -CHG: Empirical Dispersion <=

    Chai and Head-Gordon Dispersion Correction
    Chai, J.-D.; Head-Gordon, M. (2010), J. Chem. Phys., 132: 6615-6620

        S6 =   1.000000E+00

   => Loading Basis Set <=

    Name: (6-311++G(D,P) AUX)
    Role: JKFIT
    Keyword: DF_BASIS_SCF
    atoms 1-3  entry C          line   162 file /home/b6056633/anaconda3/share/psi4/basis/aug-cc-pvtz-jkfit.gbs 
    atoms 4-11 entry H          line    70 file /home/b6056633/anaconda3/share/psi4/basis/aug-cc-pvtz-jkfit.gbs 

  Reading orbitals from file 180, no projection.

  ==> Pre-Iterations <==

   -------------------------------------------------------
    Irrep   Nso     Nmo     Nalpha   Nbeta   Ndocc  Nsocc
   -------------------------------------------------------
     A        122     122       0       0       0       0
   -------------------------------------------------------
    Total     122     122      13      13      13       0
   -------------------------------------------------------

  ==> Integral Setup <==

  ==> DiskDFJK: Density-Fitted J/K Matrices <==

    J tasked:                  Yes
    K tasked:                  Yes
    wK tasked:                 Yes
    Omega:               2.000E-01
    OpenMP threads:              4
    Integrals threads:           4
    Memory (MB):              1430
    Algorithm:                Core
    Integral Cache:           NONE
    Schwarz Cutoff:          1E-12
    Fitting Condition:       1E-12

   => Auxiliary Basis Set <=

  Basis Set: (6-311++G(D,P) AUX)
    Blend: AUG-CC-PVTZ-JKFIT
    Number of shells: 202
    Number of basis function: 680
    Number of Cartesian functions: 833
    Spherical Harmonics?: true
    Max angular momentum: 4

  Minimum eigenvalue in the overlap matrix is 6.0333520247E-05.
  Using Symmetric Orthogonalization.

  SCF Guess: Orbitals guess was supplied from a previous computation.

  ==> Iterations <==

                           Total Energy        Delta E     RMS |[F,P]|

   @DF-RKS iter   0:  -119.13649660165002   -1.19136e+02   5.06498e-04 
   @DF-RKS iter   1:  -119.13300351616097    3.49309e-03   8.24945e-05 
   @DF-RKS iter   2:  -119.13302936774707   -2.58516e-05   3.53410e-05 DIIS
   @DF-RKS iter   3:  -119.13303226972501   -2.90198e-06   1.76666e-05 DIIS
   @DF-RKS iter   4:  -119.13303306819988   -7.98475e-07   2.38063e-06 DIIS
   @DF-RKS iter   5:  -119.13303308636151   -1.81616e-08   5.00412e-07 DIIS
   @DF-RKS iter   6:  -119.13303308729378   -9.32275e-10   1.47869e-07 DIIS
   @DF-RKS iter   7:  -119.13303308735631   -6.25278e-11   4.96279e-08 DIIS
   @DF-RKS iter   8:  -119.13303308736188   -5.57066e-12   9.30405e-09 DIIS

  ==> Post-Iterations <==

    Orbital Energies [Eh]
    ---------------------

    Doubly Occupied:                                                      

       1A    -10.275958     2A    -10.267047     3A    -10.266572  
       4A     -0.878032     5A     -0.777292     6A     -0.679283  
       7A     -0.542467     8A     -0.523613     9A     -0.479173  
      10A     -0.468696    11A     -0.418396    12A     -0.418020  
      13A     -0.403625  

    Virtual:                                                              

      14A      0.044326    15A      0.060631    16A      0.062143  
      17A      0.066486    18A      0.089708    19A      0.097760  
      20A      0.098199    21A      0.103965    22A      0.136408  
      23A      0.153852    24A      0.161797    25A      0.176541  
      26A      0.178492    27A      0.180044    28A      0.190299  
      29A      0.192890    30A      0.196084    31A      0.204633  
      32A      0.221745    33A      0.226237    34A      0.235935  
      35A      0.256967    36A      0.270379    37A      0.272388  
      38A      0.327424    39A      0.332231    40A      0.342151  
      41A      0.376798    42A      0.388296    43A      0.402594  
      44A      0.514683    45A      0.517766    46A      0.524627  
      47A      0.531199    48A      0.566568    49A      0.592970  
      50A      0.621271    51A      0.718217    52A      0.723346  
      53A      0.741565    54A      0.744220    55A      0.749312  
      56A      0.752287    57A      0.755597    58A      0.789798  
      59A      0.819171    60A      0.836801    61A      0.927098  
      62A      0.977786    63A      1.005496    64A      1.041222  
      65A      1.122044    66A      1.287223    67A      1.350217  
      68A      1.368883    69A      1.493880    70A      1.560137  
      71A      1.562864    72A      1.593077    73A      1.617297  
      74A      1.633106    75A      1.670600    76A      1.698062  
      77A      1.703077    78A      1.731283    79A      1.772559  
      80A      1.815844    81A      1.826059    82A      1.859920  
      83A      1.879508    84A      1.956609    85A      2.032082  
      86A      2.090347    87A      2.163445    88A      2.198343  
      89A      2.222295    90A      2.228511    91A      2.328313  
      92A      2.389236    93A      2.463076    94A      2.491346  
      95A      2.552692    96A      2.557880    97A      2.582466  
      98A      2.616377    99A      2.626934   100A      2.638018  
     101A      2.663519   102A      2.699326   103A      2.748190  
     104A      2.773807   105A      2.783527   106A      2.827252  
     107A      2.852920   108A      2.886021   109A      2.942638  
     110A      3.075812   111A      3.168080   112A      3.384437  
     113A      3.735000   114A      3.857636   115A      3.916747  
     116A      3.932639   117A      4.086728   118A      4.278949  
     119A      4.427910   120A     24.005561   121A     24.101623  
     122A     24.112781  

    Final Occupation by Irrep:
              A 
    DOCC [    13 ]

  Energy converged.

  @DF-RKS Final Energy:  -119.13303308736188

   => Energetics <=

    Nuclear Repulsion Energy =             82.2502388319512647
    One-Electron Energy =                -321.2308110596047186
    Two-Electron Energy =                 132.8350339332905321
    DFT Exchange-Correlation Energy =     -12.9836122801493410
    Empirical Dispersion Energy =          -0.0038825128496027
    VV10 Nonlocal Energy =                  0.0000000000000000
    Total Energy =                       -119.1330330873618664



Properties will be evaluated at   0.000000,   0.000000,   0.000000 [a0]

Properties computed using the SCF density matrix

  Nuclear Dipole Moment: [e a0]
     X:    -0.0054      Y:     0.1543      Z:    -0.4204

  Electronic Dipole Moment: [e a0]
     X:     0.0036      Y:    -0.1674      Z:     0.4485

  Dipole Moment: [e a0]
     X:    -0.0018      Y:    -0.0131      Z:     0.0280     Total:     0.0310

  Dipole Moment: [D]
     X:    -0.0045      Y:    -0.0333      Z:     0.0713     Total:     0.0788


*** tstop() called on d-snes-l-dc-01 at Tue Sep 25 22:08:16 2018
Module time:
	user time   =      21.32 seconds =       0.36 minutes
	system time =       0.26 seconds =       0.00 minutes
	total time  =          5 seconds =       0.08 minutes
Total time:
	user time   =      93.84 seconds =       1.56 minutes
	system time =       1.69 seconds =       0.03 minutes
	total time  =         25 seconds =       0.42 minutes

*** tstart() called on d-snes-l-dc-01
*** at Tue Sep 25 22:08:16 2018


         ------------------------------------------------------------
                                   SCF GRAD                          
                          Rob Parrish, Justin Turney,                
                       Andy Simmonett, and Alex Sokolov              
         ------------------------------------------------------------

  ==> Geometry <==

    Molecular point group: c1
    Full point group: C1

    Geometry (in Angstrom), charge = 0, multiplicity = 1:

       Center              X                  Y                   Z               Mass       
    ------------   -----------------  -----------------  -----------------  -----------------
         C            1.281215463063     0.106718212425    -0.249312424104    12.000000000000
         C            0.004282325468    -0.216916961814     0.532783419794    12.000000000000
         C           -1.285017373532     0.096372801387    -0.245804989189    12.000000000000
         H            1.504473404642     1.176676887153    -0.226638046967     1.007825032070
         H            2.146674067157    -0.423244940517     0.155764122060     1.007825032070
         H            1.179103038750    -0.188651501235    -1.297704405777     1.007825032070
         H            0.017440525800    -1.275964799424     0.807930683845     1.007825032070
         H            0.002084667956     0.330293996784     1.479431504315     1.007825032070
         H           -2.060425794426     0.518590060464     0.396479931375     1.007825032070
         H           -1.695854858487    -0.796890346436    -0.721407745380     1.007825032070
         H           -1.099215270471     0.823813837458    -1.042338730072     1.007825032070

  Nuclear repulsion =   82.250238831951265

  ==> Basis Set <==

  Basis Set: 6-311++G(D,P)
    Blend: 6-311++G(D,P)
    Number of shells: 70
    Number of basis function: 122
    Number of Cartesian functions: 125
    Spherical Harmonics?: true
    Max angular momentum: 2

  ==> DFJKGrad: Density-Fitted SCF Gradients <==

    Gradient:                    1
    J tasked:                  Yes
    K tasked:                  Yes
    wK tasked:                 Yes
    Omega:               2.000E-01
    OpenMP threads:              4
    Integrals threads:           4
    Memory (MB):              1430
    Schwarz Cutoff:          0E+00
    Fitting Condition:       1E-12

   => Auxiliary Basis Set <=

  Basis Set: (6-311++G(D,P) AUX)
    Blend: AUG-CC-PVTZ-JKFIT
    Number of shells: 202
    Number of basis function: 680
    Number of Cartesian functions: 833
    Spherical Harmonics?: true
    Max angular momentum: 4

  ==> DFT Potential <==

   => Composite Functional: WB97X-D <= 

    wB97X-D Hyb-GGA Exchange-Correlation Functional

    J.-D. Chai and M. Head-Gordon, Phys. Chem. Chem. Phys. 10, 6615 (2008)

    Deriv               =              1
    GGA                 =           TRUE
    Meta                =          FALSE

    Exchange Hybrid     =           TRUE
    MP2 Hybrid          =          FALSE

   => Exchange-Correlation Functionals <=

    1.0000   wB97D range-separated functional

   => Exact (HF) Exchange <=

    0.7780            HF,LR [omega = 0.2000]
    0.2220               HF 

   => Molecular Quadrature <=

    Radial Scheme       =       TREUTLER
    Pruning Scheme      =           FLAT
    Nuclear Scheme      =       TREUTLER

    BS radius alpha     =              1
    Pruning alpha       =              1
    Radial Points       =             75
    Spherical Points    =            302
    Total Points        =         249150
    Total Blocks        =           1906
    Max Points          =            256
    Max Functions       =            122


  -Total Gradient:
     Atom            X                  Y                   Z
    ------   -----------------  -----------------  -----------------
       1        0.000879603625     0.001335194307    -0.000156620519
       2        0.000383304562     0.001067474693     0.000187643212
       3       -0.001250566766    -0.001907006978     0.000779750566
       4        0.000965223267    -0.000527495801     0.000957662469
       5       -0.000492586365    -0.000947862465    -0.001096504535
       6       -0.000324012470     0.000760192792     0.000230277535
       7        0.001147021473     0.000089660995     0.000069953881
       8       -0.001653016834    -0.000881642946     0.000009782077
       9        0.000848995414     0.001419826999    -0.000725631470
      10       -0.000225964411     0.000343020020     0.000677360991
      11       -0.000213344028    -0.000966804303    -0.000925440366


*** tstop() called on d-snes-l-dc-01 at Tue Sep 25 22:08:19 2018
Module time:
	user time   =      11.23 seconds =       0.19 minutes
	system time =       0.19 seconds =       0.00 minutes
	total time  =          3 seconds =       0.05 minutes
Total time:
	user time   =     105.08 seconds =       1.75 minutes
	system time =       1.88 seconds =       0.03 minutes
	total time  =         28 seconds =       0.47 minutes

			-----------------------------------------
			 OPTKING 2.0: for geometry optimizations 
			  - R.A. King,  Bethel University        
			-----------------------------------------

	Previous internal coordinate definitions found.
	---Fragment 1 Geometry and Gradient---
	 C           2.4211463424        0.2016681949       -0.4711322031
	 C           0.0080924223       -0.4099136514        1.0068147516
	 C          -2.4283309120        0.1821182013       -0.4645041117
	 H           2.8430427090        2.2235970636       -0.4282838401
	 H           4.0566260835       -0.7998170247        0.2943515320
	 H           2.2281818257       -0.3564996719       -2.4523059284
	 H           0.0329578174       -2.4112240261        1.5267677268
	 H           0.0039394515        0.6241651973        2.7957203755
	 H          -3.8936404686        0.9799931895        0.7492384875
	 H          -3.2047012437       -1.5059045127       -1.3632630689
	 H          -2.0772158223        1.5567825373       -1.9697347375
	             0.0008796036        0.0013351943       -0.0001566205
	             0.0003833046        0.0010674747        0.0001876432
	            -0.0012505668       -0.0019070070        0.0007797506
	             0.0009652233       -0.0005274958        0.0009576625
	            -0.0004925864       -0.0009478625       -0.0010965045
	            -0.0003240125        0.0007601928        0.0002302775
	             0.0011470215        0.0000896610        0.0000699539
	            -0.0016530168       -0.0008816429        0.0000097821
	             0.0008489954        0.0014198270       -0.0007256315
	            -0.0002259644        0.0003430200        0.0006773610
	            -0.0002133440       -0.0009668043       -0.0009254404

	---Fragment 1 Intrafragment Coordinates---
	 - Coordinate -           - BOHR/RAD -       - ANG/DEG -
	 R(1,2)           =         2.895028	       1.531983
	 R(1,4)           =         2.065921	       1.093238
	 R(1,5)           =         2.064881	       1.092688
	 R(1,6)           =         2.067326	       1.093982
	 R(2,3)           =         2.907136	       1.538390
	 R(2,7)           =         2.067901	       1.094286
	 R(2,8)           =         2.066282	       1.093429
	 R(3,9)           =         2.063227	       1.091813
	 R(3,10)          =         2.063962	       1.092202
	 R(3,11)          =         2.068503	       1.094604
	 B(1,2,3)         =         1.979219	     113.400901
	 B(1,2,7)         =         1.899472	     108.831757
	 B(1,2,8)         =         1.915518	     109.751082
	 B(2,1,4)         =         1.945916	     111.492784
	 B(2,1,5)         =         1.948158	     111.621227
	 B(2,1,6)         =         1.933068	     110.756659
	 B(2,3,9)         =         1.956524	     112.100568
	 B(2,3,10)        =         1.948816	     111.658931
	 B(2,3,11)        =         1.940530	     111.184206
	 B(3,2,7)         =         1.911789	     109.537441
	 B(3,2,8)         =         1.911941	     109.546143
	 B(4,1,5)         =         1.880990	     107.772773
	 B(4,1,6)         =         1.878828	     107.648924
	 B(5,1,6)         =         1.873651	     107.352314
	 B(7,2,8)         =         1.840738	     105.466547
	 B(9,3,10)        =         1.881043	     107.775841
	 B(9,3,11)        =         1.866734	     106.955967
	 B(10,3,11)       =         1.865542	     106.887691
	 D(1,2,3,9)       =        -2.461562	    -141.037131
	 D(1,2,3,10)      =         1.708894	      97.912402
	 D(1,2,3,11)      =        -0.372987	     -21.370583
	 D(3,2,1,4)       =         1.378524	      78.983632
	 D(3,2,1,5)       =        -2.799895	    -160.422138
	 D(3,2,1,6)       =        -0.713211	     -40.863994
	 D(4,1,2,7)       =        -2.772202	    -158.835464
	 D(4,1,2,8)       =        -0.765948	     -43.885568
	 D(5,1,2,7)       =        -0.667435	     -38.241234
	 D(5,1,2,8)       =         1.338819	      76.708662
	 D(6,1,2,7)       =         1.419248	      81.316910
	 D(6,1,2,8)       =        -2.857683	    -163.733194
	 D(7,2,3,9)       =         1.696026	      97.175142
	 D(7,2,3,10)      =        -0.416703	     -23.875325
	 D(7,2,3,11)      =        -2.498584	    -143.158310
	 D(8,2,3,9)       =        -0.315118	     -18.054936
	 D(8,2,3,10)      =        -2.427847	    -139.105404
	 D(8,2,3,11)      =         1.773457	     101.611611

	Current energy   :      -119.1330330874

	Energy change for the previous step:
		Projected    :        -0.0009172932
		Actual       :        -0.0006573184

	Performing BFGS update.
	Previous computed or guess Hessian on step 1.
	Steps to be used in Hessian update: 2 1
	Taking RFO optimization step.
	Going to follow RFO solution 1.
	Using RFO vector 1.

	Determining step-restricting scale parameter for RS-RFO.
	Maximum step size allowed    0.12500

	 Iter      |step|        alpha        rfo_root  
	------------------------------------------------
[...]
   12    -0.00666831324712    -0.00118322052253    -0.00070903648950     0.00034935344506    -0.00953368887602
   13    -0.01609028324312    -0.00384806990052    -0.00131379922881     0.00505241992399     0.00275828205897
   14    -0.00294978872532    -0.00058906007939     0.00041979755097     0.00046790827623     0.02588264305687
   15     0.01104368710825     0.00281216277308     0.00064310266350    -0.00209168521597    -0.00693533324323
   16     0.02304057851815     0.00152802081408     0.00100436560969     0.00121802229154    -0.00133918939700
   17     0.00466544376987     0.00029849298836    -0.00010228719556    -0.00002005739817    -0.00154438109754
   18    -0.01628613285887    -0.00104753702463     0.00063127244140     0.00097236961242     0.00033424025845
   19     0.00418302661105    -0.00017604545083     0.02880947152274    -0.00969042542056    -0.00468002385563
   20     0.07549319958494    -0.00014052082387    -0.00653296984764     0.00153569212643    -0.00055269264882
   21    -0.07435757899636     0.00018802592121     0.01692894266882    -0.00594411642297     0.00339557971698
   22    -0.01289363607929    -0.00361236592451    -0.01729589473507    -0.02448929094415     0.00107070463337
   23    -0.12169240573265     0.00103218535573     0.00477459460496     0.00791865179462     0.00054051288490
   24    -0.21607843095656    -0.00173322523996    -0.00993469851556    -0.01380882459364    -0.00047751057706
   25     0.01727927742390    -0.22052933174614    -0.02718955481484     0.12266600896739     0.00036130667800
   26    -0.00545910595718    -0.02776702324388    -0.05229781812470     0.01946148850739     0.00034968062478
   27     0.01099058101944     0.12442857846938     0.01933172532047    -0.13563137069859    -0.00004837428052
   28    -0.02305879590454    -0.04897537548786    -0.01279477895432    -0.01631666487437    -0.00009792354821
   29     0.00765991572305    -0.01348539338026    -0.13847592743698    -0.12403452958928    -0.00001158579805
   30    -0.01499237383536    -0.01729197786636    -0.12329358253911    -0.21633414463525    -0.00006926483610
   31    -0.00832454074046    -0.04741073163328    -0.00872380372723     0.00342834258359    -0.00031471887374
   32     0.00188306078015    -0.00755442035439    -0.28510355329603     0.07489641619760     0.00074866933662
   33    -0.00617963021550     0.00296259600902     0.07424831112600    -0.07129216655221    -0.00026873390332

                11                  12                  13                  14                  15

    1    -0.01915652377532     0.00541015529577    -0.22385227174081     0.05066396602284    -0.11574427156172
    2    -0.28336293839797     0.07471898774550     0.05009662411824    -0.06235129326035     0.03270192073538
    3     0.07549104995200    -0.07168214041801    -0.11400139072172     0.03256495211253    -0.12220313089494
    4     0.00018336239564     0.00162503367972    -0.01995021004593    -0.00424215353705     0.01726147575382
    5    -0.00353695958527     0.01957901313564     0.00658008092965    -0.00047340437616    -0.00544437589812
    6     0.00078370199796    -0.00666831324712    -0.01609028324312    -0.00294978872532     0.01104368710825
    7     0.00025009251734    -0.00118322052253    -0.00384806990052    -0.00058906007939     0.00281216277308
    8     0.00073971105663    -0.00070903648950    -0.00131379922881     0.00041979755097     0.00064310266350
    9    -0.00033758918400     0.00034935344506     0.00505241992399     0.00046790827623    -0.00209168521597
   10     0.02176978249176    -0.00953368887602     0.00275828205897     0.02588264305687    -0.00693533324323
   11     0.30656899645674    -0.08400428336516    -0.00065026231005    -0.00606050433050     0.00103152724344
   12    -0.08400428336516     0.07579912847009     0.00228999964839     0.01630822521307    -0.00572337904238
   13    -0.00065026231005     0.00228999964839     0.24498561849065    -0.05477564627329     0.12328963310070
   14    -0.00606050433050     0.01630822521307    -0.05477564627329     0.06272751291061    -0.03614858389650
   15     0.00103152724344    -0.00572337904238     0.12328963310070    -0.03614858389650     0.12993197869292
   16    -0.00090401147286    -0.00184568709820    -0.00048475193810    -0.01702200176202    -0.02063047510782
   17    -0.01729720002085    -0.02554603667457    -0.00022057687484     0.00469306484971     0.00762830944394
   18     0.00647491371901     0.00907948362393     0.00022478382414    -0.00982418174553    -0.01321752407246
   19    -0.00044918723248     0.00369793417125     0.00059302300798    -0.00013744614943    -0.00077667007089
   20     0.00177213978239     0.00017240651113    -0.00072135211095     0.00002741822823    -0.00009692538595
   21     0.00054256542070    -0.00157562096094    -0.00025293974894    -0.00047630740645     0.00068236668699
   22    -0.00026957520518    -0.00064129890804     0.00073917379883     0.00049173413222    -0.00060552498540
   23     0.00082030613063     0.00017450192977     0.00061519537603    -0.00018064029147    -0.00033070605984
   24     0.00037630847477     0.00001971737536     0.00021149612331    -0.00011800695248     0.00074657610029
   25    -0.00002890286744    -0.00015134353927    -0.00160251332582    -0.00016945653342     0.00105492699262
   26     0.00037268304409    -0.00015500660451     0.00046722808325     0.00062250058252    -0.00012702409935
   27    -0.00012445585564    -0.00009943671933    -0.00092912606061     0.00003341464641     0.00073299228384
   28    -0.00000854981046     0.00001637624807     0.00034781080360     0.00024937581614     0.00026017777044
   29    -0.00015339924987    -0.00018860923752    -0.00011972222280     0.00010538364471     0.00025196720462
   30     0.00004018802965     0.00001208345564     0.00010116411472     0.00033653318715     0.00021327030006
   31    -0.00073622473095     0.00031573990086     0.00031390879115    -0.00035195469348     0.00001389857840
   32     0.00013716511400    -0.00035016216386     0.00004223051355     0.00047016449174    -0.00010921195112
   33    -0.00027392643273     0.00048912401768     0.00010424303914    -0.00019416470912    -0.00011515194660

                16                  17                  18                  19                  20

    1    -0.04758654203889    -0.00555860508504    -0.00848291884680    -0.00336333568806    -0.00018033131449
    2    -0.00622391899935    -0.13985957290758    -0.12417007136289    -0.02816698915281    -0.00272020362466
    3    -0.00955819840888    -0.12482649439998    -0.21628891797652     0.00954923846125     0.00027187031072
    4     0.00016554813055    -0.00008836687648    -0.00095582762857    -0.04757211610155    -0.01324233439691
    5     0.01762842487622     0.00276507896587    -0.01185307754161    -0.01329630108176    -0.27998005599811
    6     0.02304057851815     0.00466544376987    -0.01628613285887     0.00418302661105     0.07549319958494
    7     0.00152802081408     0.00029849298836    -0.00104753702463    -0.00017604545083    -0.00014052082387
    8     0.00100436560969    -0.00010228719556     0.00063127244140     0.02880947152274    -0.00653296984764
    9     0.00121802229154    -0.00002005739817     0.00097236961242    -0.00969042542056     0.00153569212643
   10    -0.00133918939700    -0.00154438109754     0.00033424025845    -0.00468002385563    -0.00055269264882
   11    -0.00090401147286    -0.01729720002085     0.00647491371901    -0.00044918723248     0.00177213978239
   12    -0.00184568709820    -0.02554603667457     0.00907948362393     0.00369793417125     0.00017240651113
   13    -0.00048475193810    -0.00022057687484     0.00022478382414     0.00059302300798    -0.00072135211095
   14    -0.01702200176202     0.00469306484971    -0.00982418174553    -0.00013744614943     0.00002741822823
   15    -0.02063047510782     0.00762830944394    -0.01321752407246    -0.00077667007089    -0.00009692538595
   16     0.05145260101680     0.00699614605362     0.00598689916172     0.00109188564481    -0.00016454264818
   17     0.00699614605362     0.14782623949510     0.13683879551247     0.00055314824636     0.00074567067650
   18     0.00598689916172     0.13683879551247     0.23583485324764    -0.00038892606051     0.00041093922453
   19     0.00109188564481     0.00055314824636    -0.00038892606051     0.05796790526663     0.01380420314026
   20    -0.00016454264818     0.00074567067650     0.00041093922453     0.01380420314026     0.30271631764650
   21    -0.00071692676550     0.00025441687448     0.00007077412576    -0.00492642550398    -0.08414982096822
   22    -0.00474200593105    -0.00095911901475     0.00365287730829    -0.00085797991140    -0.00097937069287
   23    -0.00067540710723     0.00128580743737     0.00120304701564    -0.00188818545654    -0.01827246289599
   24     0.00340785705373     0.00092255601357    -0.00107130034190     0.00065770251756     0.00568870256152
   25     0.00031946743944     0.00009167161821    -0.00007034332862     0.00072569072669     0.00063902418455
   26    -0.00028818999446     0.00011741510811     0.00033859490822     0.00005102948510    -0.00003318517164
   27    -0.00021988245121     0.00028010720074     0.00021764752114     0.00078395573102    -0.00025095260491
   28    -0.00029802764680     0.00044571063480     0.00069363437836     0.00108198333373     0.00012402378540
   29    -0.00039907894130    -0.00001891560525    -0.00010683493225    -0.00061887165210     0.00080042453562
   30    -0.00063099116009    -0.00004050563102     0.00066872332333     0.00034522606548     0.00030918094618
   31    -0.00010700609385    -0.00001412059271     0.00005311795817    -0.00481098697236     0.00141389352587
   32     0.00004821438587    -0.00015530080342     0.00005660276099     0.00133912833064     0.00147690666879
   33    -0.00005119603345    -0.00015653471134     0.00002002379552    -0.00343463650168     0.00061570769362

                21                  22                  23                  24                  25

    1     0.00188049927991     0.00004850807564     0.00005031794970    -0.00039294084334    -0.00396071350309
    2     0.01846338495446     0.01743744923420     0.00256122706679    -0.01102906949848     0.00190901871936
    3    -0.00652597829017     0.02457985550830     0.00469815847767    -0.01523323337950    -0.00484607496866
    4     0.00403920098689    -0.04780547300940    -0.00949500495133    -0.01273278824642    -0.01993180088201
    5     0.07319005098335    -0.00943583555026    -0.13794984708190    -0.11938451341677    -0.00427246364594
    6    -0.07435757899636    -0.01289363607929    -0.12169240573265    -0.21607843095656     0.01727927742390
    7     0.00018802592121    -0.00361236592451     0.00103218535573    -0.00173322523996    -0.22052933174614
    8     0.01692894266882    -0.01729589473507     0.00477459460496    -0.00993469851556    -0.02718955481484
    9    -0.00594411642297    -0.02448929094415     0.00791865179462    -0.01380882459364     0.12266600896739
   10     0.00339557971698     0.00107070463337     0.00054051288490    -0.00047751057706     0.00036130667800
   11     0.00054256542070    -0.00026957520518     0.00082030613063     0.00037630847477    -0.00002890286744
   12    -0.00157562096094    -0.00064129890804     0.00017450192977     0.00001971737536    -0.00015134353927
   13    -0.00025293974894     0.00073917379883     0.00061519537603     0.00021149612331    -0.00160251332582
   14    -0.00047630740645     0.00049173413222    -0.00018064029147    -0.00011800695248    -0.00016945653342
   15     0.00068236668699    -0.00060552498540    -0.00033070605984     0.00074657610029     0.00105492699262
   16    -0.00071692676550    -0.00474200593105    -0.00067540710723     0.00340785705373     0.00031946743944
   17     0.00025441687448    -0.00095911901475     0.00128580743737     0.00092255601357     0.00009167161821
   18     0.00007077412576     0.00365287730829     0.00120304701564    -0.00107130034190    -0.00007034332862
   19    -0.00492642550398    -0.00085797991140    -0.00188818545654     0.00065770251756     0.00072569072669
   20    -0.08414982096822    -0.00097937069287    -0.01827246289599     0.00568870256152     0.00063902418455
   21     0.07938589335434    -0.00138287849661    -0.02536699212369     0.00881316963181     0.00018800133159
   22    -0.00138287849661     0.05824809355169     0.00955518688620     0.01381237992767     0.00057892392715
   23    -0.02536699212369     0.00955518688620     0.14518943433237     0.13197636279991    -0.00075407367498
   24     0.00881316963181     0.01381237992767     0.13197636279991     0.23657392927235    -0.00021059517839
   25     0.00018800133159     0.00057892392715    -0.00075407367498    -0.00021059517839     0.24141532443292
   26    -0.00049384825118    -0.00059949996098     0.00002798057022    -0.00004721318124     0.02894905226963
   27     0.00063758477728     0.00056010537593    -0.00037581438272     0.00074539824238    -0.13308349268080
   28     0.00070279171937    -0.00478221616024     0.00155221085902    -0.00302375024704     0.00290919682592
   29     0.00018748052844     0.00179340054545     0.00094548025653     0.00125489860760     0.00086706587846
   30    -0.00000374348918    -0.00321676077615     0.00160794964927    -0.00070384955769    -0.00238143017632
   31    -0.00311492844092     0.00111463694992    -0.00053293812153     0.00048137470994    -0.00028555057307
   32     0.00092012731929     0.00026152436104     0.00079811987048     0.00029467310716    -0.00004138113358
   33    -0.00118275041655     0.00062417206946     0.00018724663200    -0.00000315179290    -0.00044493484343

                26                  27                  28                  29                  30

    1     0.00119959765425    -0.00262191587029     0.00132607199020    -0.00047651489839     0.00107895980064
    2     0.00011569504807     0.00091030985182    -0.00115966315229     0.00010597352587     0.00055921910089
    3     0.00107883477647    -0.00163192515510    -0.00125307404914     0.00015859418398     0.00100750120672
    4     0.00659886142475    -0.01605491508439    -0.00338234770825     0.00114925564104    -0.00130785194141
    5    -0.00051604184523    -0.00297378569879    -0.01748719267151     0.00497304096344    -0.01080505634562
    6    -0.00545910595718     0.01099058101944    -0.02305879590454     0.00765991572305    -0.01499237383536
    7    -0.02776702324388     0.12442857846938    -0.04897537548786    -0.01348539338026    -0.01729197786636
    8    -0.05229781812470     0.01933172532047    -0.01279477895432    -0.13847592743698    -0.12329358253911
    9     0.01946148850739    -0.13563137069859    -0.01631666487437    -0.12403452958928    -0.21633414463525
   10     0.00034968062478    -0.00004837428052    -0.00009792354821    -0.00001158579805    -0.00006926483610
   11     0.00037268304409    -0.00012445585564    -0.00000854981046    -0.00015339924987     0.00004018802965
   12    -0.00015500660451    -0.00009943671933     0.00001637624807    -0.00018860923752     0.00001208345564
   13     0.00046722808325    -0.00092912606061     0.00034781080360    -0.00011972222280     0.00010116411472
   14     0.00062250058252     0.00003341464641     0.00024937581614     0.00010538364471     0.00033653318715
   15    -0.00012702409935     0.00073299228384     0.00026017777044     0.00025196720462     0.00021327030006
   16    -0.00028818999446    -0.00021988245121    -0.00029802764680    -0.00039907894130    -0.00063099116009
   17     0.00011741510811     0.00028010720074     0.00044571063480    -0.00001891560525    -0.00004050563102
   18     0.00033859490822     0.00021764752114     0.00069363437836    -0.00010683493225     0.00066872332333
   19     0.00005102948510     0.00078395573102     0.00108198333373    -0.00061887165210     0.00034522606548
   20    -0.00003318517164    -0.00025095260491     0.00012402378540     0.00080042453562     0.00030918094618
   21    -0.00049384825118     0.00063758477728     0.00070279171937     0.00018748052844    -0.00000374348918
   22    -0.00059949996098     0.00056010537593    -0.00478221616024     0.00179340054545    -0.00321676077615
   23     0.00002798057022    -0.00037581438272     0.00155221085902     0.00094548025653     0.00160794964927
   24    -0.00004721318124     0.00074539824238    -0.00302375024704     0.00125489860760    -0.00070384955769
   25     0.02894905226963    -0.13308349268080     0.00290919682592     0.00086706587846    -0.00238143017632
   26     0.05185787274106    -0.02191530581010     0.01669457591443     0.00242888052063    -0.01061266367027
   27    -0.02191530581010     0.14437492993320     0.02062532551672     0.00490327992065    -0.01432805873875
   28     0.01669457591443     0.02062532551672     0.05315898912862     0.01330556425541     0.02226854641563
   29     0.00242888052063     0.00490327992065     0.01330556425541     0.14651571852846     0.13552322259312
   30    -0.01061266367027    -0.01432805873875     0.02226854641563     0.13552322259312     0.23550088164748
   31    -0.02565531225687     0.00655974133478    -0.00128816153071    -0.00200411942747     0.00110438035995
   32    -0.00269598247314     0.00018147741207    -0.00092127667663    -0.01722665968315     0.00637551467976
   33     0.01793124938173    -0.00600834246550    -0.00091456697349    -0.02560938500240     0.00895971032300

                31                  32                  33

    1     0.00153117463595    -0.00036164435521     0.00098860656211
    2     0.00152746501658     0.00058012381446    -0.00095642290432
    3    -0.00041827142090    -0.00027435389534     0.00031182767226
    4    -0.00004697425495    -0.00057360718696     0.00053330539907
    5     0.02806455222872    -0.00719341783048     0.01808206317326
    6    -0.00832454074046     0.00188306078015    -0.00617963021550
    7    -0.04741073163328    -0.00755442035439     0.00296259600902
    8    -0.00872380372723    -0.28510355329603     0.07424831112600
    9     0.00342834258359     0.07489641619760    -0.07129216655221
   10    -0.00031471887374     0.00074866933662    -0.00026873390332
   11    -0.00073622473095     0.00013716511400    -0.00027392643273
   12     0.00031573990086    -0.00035016216386     0.00048912401768
   13     0.00031390879115     0.00004223051355     0.00010424303914
   14    -0.00035195469348     0.00047016449174    -0.00019416470912
   15     0.00001389857840    -0.00010921195112    -0.00011515194660
   16    -0.00010700609385     0.00004821438587    -0.00005119603345
   17    -0.00001412059271    -0.00015530080342    -0.00015653471134
   18     0.00005311795817     0.00005660276099     0.00002002379552
   19    -0.00481098697236     0.00133912833064    -0.00343463650168
   20     0.00141389352587     0.00147690666879     0.00061570769362
   21    -0.00311492844092     0.00092012731929    -0.00118275041655
   22     0.00111463694992     0.00026152436104     0.00062417206946
   23    -0.00053293812153     0.00079811987048     0.00018724663200
   24     0.00048137470994     0.00029467310716    -0.00000315179290
   25    -0.00028555057307    -0.00004138113358    -0.00044493484343
   26    -0.02565531225687    -0.00269598247314     0.01793124938173
   27     0.00655974133478     0.00018147741207    -0.00600834246550
   28    -0.00128816153071    -0.00092127667663    -0.00091456697349
   29    -0.00200411942747    -0.01722665968315    -0.02560938500240
   30     0.00110438035995     0.00637551467976     0.00895971032300
   31     0.05130440955493     0.00701256277905    -0.00009885482342
   32     0.00701256277905     0.30891243412675    -0.08387414424670
   33    -0.00009885482342    -0.08387414424670     0.07500050758078




    Psi4 stopped on: Tuesday, 25 September 2018 10:19PM
    Psi4 wall time for execution: 0:11:37.13

*** Psi4 exiting successfully. Buy a developer a beer!
