
Host: d-snes-l-dc-01

Timers On : Fri Sep 21 10:57:21 2018
Timers Off: Fri Sep 21 10:57:29 2018

Wall Time:        8.26 seconds


-----------------------------------------------------------

***********************************************************

Host: d-snes-l-dc-01

Timers On : Fri Sep 21 10:59:17 2018
Timers Off: Fri Sep 21 10:59:23 2018

Wall Time:        6.61 seconds


-----------------------------------------------------------

***********************************************************

Host: d-snes-l-dc-01

Timers On : Fri Sep 21 11:00:00 2018
Timers Off: Fri Sep 21 11:00:17 2018

Wall Time:       17.91 seconds


-----------------------------------------------------------

***********************************************************

Host: d-snes-l-dc-01

Timers On : Fri Sep 21 11:01:21 2018
Timers Off: Fri Sep 21 11:01:37 2018

Wall Time:       15.94 seconds


-----------------------------------------------------------

***********************************************************

Host: d-snes-l-dc-01

Timers On : Fri Sep 21 11:01:38 2018
Timers Off: Fri Sep 21 11:01:42 2018

Wall Time:        3.51 seconds


-----------------------------------------------------------

***********************************************************

Host: d-snes-l-dc-01

Timers On : Fri Sep 21 11:01:47 2018
Timers Off: Fri Sep 21 11:01:52 2018

Wall Time:        5.45 seconds


-----------------------------------------------------------

***********************************************************

Host: d-snes-l-dc-01

Timers On : Fri Sep 21 11:02:26 2018
Timers Off: Fri Sep 21 11:02:30 2018

Wall Time:        3.52 seconds


-----------------------------------------------------------

***********************************************************

Host: d-snes-l-dc-01

Timers On : Fri Sep 21 11:03:36 2018
Timers Off: Fri Sep 21 11:03:41 2018

Wall Time:        5.03 seconds


-----------------------------------------------------------

***********************************************************

Host: d-snes-l-dc-01

Timers On : Fri Sep 21 11:08:55 2018
Timers Off: Fri Sep 21 11:09:08 2018

Wall Time:       12.95 seconds


-----------------------------------------------------------

***********************************************************

Host: d-snes-l-dc-01

Timers On : Fri Sep 21 11:14:44 2018
Timers Off: Fri Sep 21 11:14:57 2018

Wall Time:       13.02 seconds


-----------------------------------------------------------

***********************************************************

Host: d-snes-l-dc-01

Timers On : Fri Sep 21 11:16:23 2018
Timers Off: Fri Sep 21 11:16:33 2018

Wall Time:        9.91 seconds


-----------------------------------------------------------

***********************************************************

Host: d-snes-l-dc-01

Timers On : Fri Sep 21 11:17:21 2018
Timers Off: Fri Sep 21 11:17:33 2018

Wall Time:       11.46 seconds


-----------------------------------------------------------

***********************************************************

Host: d-snes-l-dc-01

Timers On : Fri Sep 21 11:17:45 2018
Timers Off: Fri Sep 21 11:17:54 2018

Wall Time:        8.85 seconds


-----------------------------------------------------------

***********************************************************

Host: d-snes-l-dc-01

Timers On : Fri Sep 21 11:18:01 2018
Timers Off: Fri Sep 21 11:18:02 2018

Wall Time:        0.56 seconds


-----------------------------------------------------------

***********************************************************

Host: d-snes-l-dc-01

Timers On : Fri Sep 21 11:18:07 2018
Timers Off: Fri Sep 21 11:18:11 2018

Wall Time:        4.39 seconds


-----------------------------------------------------------

***********************************************************

Host: d-snes-l-dc-01

Timers On : Fri Sep 21 11:18:40 2018
Timers Off: Fri Sep 21 11:18:56 2018

Wall Time:       16.15 seconds


-----------------------------------------------------------

***********************************************************
